ITEM: TIMESTEP
1000
ITEM: NUMBER OF ATOMS
768
ITEM: BOX BOUNDS pp pp pp
-3.8468215899389530e-03 2.1538549353980805e+01
-3.8468215899389530e-03 2.1538549353980805e+01
-3.8468215899407293e-03 2.1538549353980809e+01
ITEM: ATOMS id type x y z
1 2 -0.0214994 0.0211445 -0.00271171
2 2 2.71997 2.74548 0.0158823
3 2 2.69448 0.00207777 2.71744
4 2 -0.0196445 2.65398 2.71999
5 1 1.3567 1.35018 1.33347
6 1 4.0381 1.36105 1.3568
7 1 1.3399 4.02081 1.33042
8 1 4.04831 4.05827 1.33308
9 1 1.38299 1.35468 4.036
10 1 4.05865 1.33603 4.05592
11 1 1.35945 4.07062 4.03012
12 1 4.06383 4.04013 4.00967
193 2 -0.0553692 -0.0468924 5.38028
194 2 2.68286 2.6533 5.36197
197 1 1.27829 1.366 6.70452
198 1 4.0136 1.38372 6.81656
199 1 1.33939 4.03909 6.70584
200 1 4.04976 4.0204 6.74019
49 2 0.033866 5.36242 0.0075511
51 2 2.69388 5.38197 2.69173
53 1 1.35037 6.72051 1.35259
54 1 4.04756 6.78556 1.33633
57 1 1.33975 6.7562 4.02379
58 1 4.03508 6.66364 4.04119
241 2 -0.0231157 5.41051 5.35053
245 1 1.3014 6.72643 6.7449
246 1 4.01874 6.70859 6.76998
13 2 5.33164 0.0236225 -0.0271837
16 2 5.39269 2.68278 2.65934
17 1 6.71997 1.37585 1.32778
19 1 6.75826 4.05496 1.35257
21 1 6.74081 1.35045 3.97981
23 1 6.75428 4.04986 4.05754
205 2 5.41787 -0.0355511 5.38333
209 1 6.71912 1.26623 6.69838
211 1 6.73011 3.99378 6.80982
61 2 5.42047 5.41307 0.0192762
65 1 6.8035 6.70672 1.32406
69 1 6.74423 6.75247 4.05458
253 2 5.37576 5.31512 5.37972
257 1 6.74884 6.76038 6.74601
14 2 8.10585 2.72065 -0.0290942
15 2 8.11264 -0.0217995 2.67187
18 1 9.42336 1.33133 1.3395
20 1 9.46688 4.062 1.30314
22 1 9.47567 1.37787 4.03889
24 1 9.37207 4.07525 4.02871
206 2 8.1077 2.71938 5.35318
210 1 9.40702 1.34356 6.72419
212 1 9.46414 4.01848 6.76105
63 2 8.10786 5.3946 2.65518
66 1 9.45591 6.77052 1.3041
70 1 9.46132 6.7771 4.02645
258 1 9.45947 6.67924 6.72057
25 2 10.7628 0.020222 0.00668972
26 2 13.4721 2.68822 -0.0399792
27 2 13.4802 -0.02708 2.69495
28 2 10.7581 2.6762 2.69732
29 1 12.1266 1.32705 1.329
31 1 12.1532 3.99134 1.31201
33 1 12.1367 1.31119 4.0513
35 1 12.126 3.98463 4.01672
217 2 10.7736 -0.033877 5.37987
218 2 13.4388 2.68635 5.35355
221 1 12.0753 1.29924 6.75599
223 1 12.1159 4.01287 6.72921
73 2 10.8043 5.33804 0.00123752
75 2 13.4733 5.37074 2.70266
77 1 12.0812 6.68056 1.34547
81 1 12.1581 6.68982 4.09657
265 2 10.7945 5.40846 5.40331
269 1 12.1093 6.74995 6.78585
30 1 14.8716 1.33152 1.37855
32 1 14.8347 4.06849 1.35121
34 1 14.8047 1.33961 4.06493
36 1 14.8109 3.9884 4.01608
222 1 14.8042 1.34642 6.70021
224 1 14.7898 3.98879 6.67647
78 1 14.7871 6.7196 1.3521
82 1 14.8564 6.67321 4.06896
270 1 14.7739 6.70237 6.71755
37 2 16.1396 0.00644255 -0.026279
38 2 18.8463 2.70047 -0.0129669
39 2 18.8516 -0.0202152 2.64178
40 2 16.1709 2.68457 2.66665
41 1 17.5234 1.30639 1.31327
42 1 20.2129 1.34708 1.34923
43 1 17.5221 4.03334 1.33374
44 1 20.1776 4.04065 1.32904
45 1 17.483 1.33807 4.06256
46 1 20.1853 1.32548 4.01153
47 1 17.5267 3.98152 4.05742
48 1 20.2107 3.98636 4.01015
229 2 16.1466 0.0294144 5.38508
230 2 18.8155 2.68701 5.36651
233 1 17.47 1.36221 6.74853
234 1 20.1415 1.32496 6.66661
235 1 17.4477 4.0884 6.74782
236 1 20.1726 4.01042 6.65456
85 2 16.2055 5.39752 0.0325479
87 2 18.9088 5.37816 2.65424
89 1 17.5039 6.72336 1.23968
90 1 20.225 6.7602 1.36655
93 1 17.5258 6.73638 3.9986
94 1 20.1857 6.73666 4.05015
277 2 16.1241 5.336 5.41828
281 1 17.4217 6.74142 6.70867
282 1 20.0926 6.70681 6.74144
50 2 2.72441 8.10023 0.0032498
52 2 0.040957 8.08517 2.67121
55 1 1.39918 9.41222 1.36547
56 1 4.04441 9.45864 1.29167
59 1 1.40287 9.44858 4.04866
60 1 4.12842 9.37688 3.96988
242 2 2.72583 8.09989 5.35683
247 1 1.32003 9.38653 6.77013
248 1 4.01314 9.39825 6.7044
97 2 0.0696321 10.762 -0.0304517
98 2 2.69506 13.4691 -0.0385919
99 2 2.78474 10.7582 2.64257
100 2 0.0599239 13.4513 2.66779
101 1 1.3904 12.1548 1.29212
102 1 4.14188 12.168 1.32633
105 1 1.3654 12.1528 3.9868
106 1 4.08379 12.1301 4.0691
289 2 0.0141717 10.737 5.34931
290 2 2.69609 13.4663 5.42378
293 1 1.34522 12.1089 6.71279
294 1 4.05211 12.103 6.768
64 2 5.43673 8.08043 2.70134
67 1 6.73713 9.42037 1.37764
71 1 6.76341 9.4261 4.02364
259 1 6.75968 9.41447 6.7626
109 2 5.43779 10.8081 -0.011504
112 2 5.41828 13.4955 2.6799
113 1 6.79334 12.0652 1.32259
117 1 6.785 12.128 4.02068
301 2 5.40785 10.764 5.35415
305 1 6.72017 12.0923 6.70077
62 2 8.12539 8.11209 0.00281745
68 1 9.44615 9.44194 1.34017
72 1 9.44119 9.39334 4.03042
254 2 8.05993 8.05662 5.38871
260 1 9.44144 9.35979 6.75537
110 2 8.10976 13.4957 0.0159398
111 2 8.14922 10.7677 2.72022
114 1 9.4846 12.1352 1.40913
118 1 9.50534 12.1183 4.1044
302 2 8.04548 13.4871 5.42029
306 1 9.43965 12.0497 6.82645
74 2 13.4432 8.0152 0.0211711
76 2 10.797 8.04308 2.67693
79 1 12.1623 9.41606 1.31235
83 1 12.1666 9.4105 4.00901
266 2 13.5174 8.04816 5.46401
271 1 12.1541 9.40442 6.75678
121 2 10.8196 10.7793 0.0398355
122 2 13.4686 13.4969 -0.00933713
123 2 13.505 10.7693 2.7067
124 2 10.7829 13.4271 2.7121
125 1 12.1744 12.0874 1.32617
129 1 12.1964 12.1071 4.02843
313 2 10.8316 10.6872 5.41807
314 2 13.4991 13.4536 5.40495
317 1 12.1815 12.0511 6.72553
80 1 14.8471 9.41642 1.33569
84 1 14.8252 9.35745 4.08083
272 1 14.8417 9.4098 6.76264
126 1 14.8071 12.0764 1.3714
130 1 14.9005 12.1086 4.04186
318 1 14.7858 12.1105 6.7393
86 2 18.8809 8.1029 -0.0452262
88 2 16.173 8.04476 2.71663
91 1 17.5333 9.47369 1.29494
92 1 20.2532 9.41303 1.24085
95 1 17.5185 9.46395 4.027
96 1 20.1897 9.42287 3.95607
278 2 18.8265 8.10269 5.35344
283 1 17.5342 9.40226 6.70185
284 1 20.176 9.34997 6.72544
133 2 16.1805 10.7827 -0.0222712
134 2 18.8387 13.4726 0.00239416
135 2 18.8595 10.7701 2.6678
136 2 16.1279 13.4541 2.6509
137 1 17.4632 12.1225 1.35563
138 1 20.2444 12.09 1.34367
141 1 17.5139 12.1348 4.03934
142 1 20.1708 12.0644 4.06753
325 2 16.1484 10.761 5.40609
326 2 18.8647 13.4496 5.38173
329 1 17.4957 12.0952 6.69066
330 1 20.2477 12.0086 6.75156
103 1 1.34478 14.8327 1.27281
104 1 4.06877 14.8426 1.36881
107 1 1.35354 14.8263 3.98855
108 1 4.0684 14.7973 4.035
295 1 1.27987 14.778 6.7025
296 1 4.00357 14.7784 6.71749
145 2 -0.0118141 16.1396 -0.0263025
146 2 2.69336 18.9109 -0.00181643
147 2 2.73198 16.156 2.71165
148 2 -0.0512152 18.8423 2.7075
149 1 1.33706 17.5551 1.36634
150 1 4.03518 17.5085 1.36621
151 1 1.28722 20.2613 1.39401
152 1 4.03233 20.2229 1.28465
153 1 1.34762 17.512 4.04856
154 1 4.04844 17.4874 4.04596
155 1 1.34413 20.1511 4.00714
156 1 4.07266 20.1896 4.0376
337 2 -0.0317711 16.1811 5.38567
338 2 2.68118 18.8201 5.40682
341 1 1.3298 17.4877 6.76574
342 1 4.01024 17.4992 6.72551
343 1 1.30279 20.1555 6.70822
344 1 4.03661 20.148 6.73073
115 1 6.77545 14.8131 1.34602
119 1 6.7332 14.784 4.06377
307 1 6.72668 14.8427 6.74356
157 2 5.32116 16.1869 0.0109961
160 2 5.36866 18.874 2.67283
161 1 6.71606 17.5287 1.3635
163 1 6.67355 20.2653 1.3495
165 1 6.71033 17.4904 4.02088
167 1 6.75774 20.167 3.99378
349 2 5.36604 16.1555 5.44303
353 1 6.74135 17.4804 6.75
355 1 6.74122 20.1522 6.71711
116 1 9.42723 14.7722 1.37509
120 1 9.37772 14.796 4.04523
308 1 9.49417 14.7761 6.74166
158 2 8.00541 18.8924 0.0175828
159 2 8.0755 16.1482 2.74033
162 1 9.37131 17.5377 1.45649
164 1 9.39794 20.1949 1.35244
166 1 9.44784 17.5115 4.1078
168 1 9.42652 20.2131 4.0724
350 2 8.08154 18.8329 5.44863
354 1 9.43638 17.4876 6.74778
356 1 9.39549 20.2212 6.76026
127 1 12.1094 14.842 1.40668
131 1 12.1011 14.7335 4.03779
319 1 12.1282 14.8511 6.75521
169 2 10.7711 16.168 0.0432814
170 2 13.4325 18.8531 0.0101928
171 2 13.47 16.1668 2.71851
172 2 10.7603 18.8109 2.71653
173 1 12.0903 17.5188 1.37542
175 1 12.1237 20.1922 1.30952
177 1 12.1065 17.4715 4.10746
179 1 12.1468 20.1526 4.06058
361 2 10.7704 16.1135 5.42982
362 2 13.5005 18.8458 5.37316
365 1 12.1116 17.5149 6.74114
367 1 12.1035 20.218 6.74883
128 1 14.7741 14.7978 1.31281
132 1 14.7894 14.8517 4.0485
320 1 14.8392 14.8023 6.72879
174 1 14.7409 17.4689 1.3622
176 1 14.8016 20.205 1.33808
178 1 14.8256 17.5128 4.0442
180 1 14.8058 20.2237 4.041
366 1 14.7713 17.4824 6.6534
368 1 14.7871 20.1667 6.75295
139 1 17.4894 14.8104 1.32456
140 1 20.2169 14.7696 1.36655
143 1 17.479 14.7941 3.99046
144 1 20.192 14.8058 4.02478
331 1 17.5217 14.7898 6.75774
332 1 20.1691 14.8016 6.68192
181 2 16.1339 16.1421 0.000316828
182 2 18.8104 18.8455 -0.0228381
183 2 18.8342 16.1438 2.68599
184 2 16.2116 18.8503 2.6781
185 1 17.4853 17.4494 1.38574
186 1 20.1511 17.4742 1.32328
187 1 17.4807 20.1931 1.29588
188 1 20.1804 20.1637 1.30878
189 1 17.5122 17.4681 4.07309
190 1 20.1758 17.4729 4.04043
191 1 17.504 20.1702 4.00003
192 1 20.1845 20.1688 4.06053
373 2 16.149 16.1599 5.36725
374 2 18.8312 18.8183 5.35714
377 1 17.5274 17.5117 6.77957
378 1 20.1981 17.4912 6.73699
379 1 17.514 20.2078 6.71722
380 1 20.1568 20.1256 6.72429
195 2 2.69536 -0.0475782 8.09614
196 2 -0.0434694 2.67481 8.04427
201 1 1.30246 1.32504 9.49185
202 1 4.03062 1.25873 9.481
203 1 1.30539 3.99047 9.40478
204 1 4.06834 4.01005 9.46908
385 2 -0.0298668 0.0285383 10.8039
386 2 2.67594 2.68956 10.7944
387 2 2.62682 -0.00348306 13.4624
388 2 -0.102271 2.6461 13.4318
389 1 1.25847 1.37588 12.0954
390 1 3.95797 1.3663 12.1905
391 1 1.30979 4.05671 12.0886
392 1 3.98655 3.99006 12.0597
243 2 2.67899 5.33364 8.12229
249 1 1.38158 6.64919 9.46944
250 1 4.06268 6.70317 9.43722
433 2 -0.0897613 5.35825 10.7411
435 2 2.61252 5.39103 13.4577
437 1 1.32582 6.75245 12.1406
438 1 3.99799 6.67916 12.1314
208 2 5.34854 2.67538 8.11966
213 1 6.66531 1.26452 9.4234
215 1 6.76051 3.96458 9.46308
397 2 5.36042 -0.0209243 10.8077
400 2 5.32344 2.70997 13.4792
401 1 6.68648 1.30467 12.1242
403 1 6.70191 4.01388 12.1593
261 1 6.78164 6.71828 9.46596
445 2 5.37649 5.39418 10.8072
449 1 6.68886 6.73027 12.1733
207 2 8.07285 -0.0147828 8.07835
214 1 9.35783 1.38711 9.41466
216 1 9.40025 4.03985 9.45812
398 2 8.04159 2.67224 10.8003
399 2 8.00934 0.00230355 13.4508
402 1 9.41621 1.351 12.1398
404 1 9.386 4.06529 12.1102
255 2 8.04229 5.34473 8.08398
262 1 9.42512 6.72552 9.38692
447 2 8.016 5.39197 13.4623
450 1 9.41761 6.78087 12.0835
219 2 13.4146 -0.00970313 8.06792
220 2 10.7536 2.69497 8.04529
225 1 12.0935 1.37479 9.38119
227 1 12.0804 4.08728 9.39886
409 2 10.7464 0.0107456 10.7764
410 2 13.4444 2.65135 10.7536
411 2 13.4009 0.0163765 13.4328
412 2 10.7726 2.70606 13.5054
413 1 12.0592 1.32412 12.0997
415 1 12.051 4.0173 12.0622
267 2 13.4408 5.40546 8.06799
273 1 12.1367 6.74202 9.48062
457 2 10.7614 5.34447 10.7843
459 2 13.4274 5.41366 13.4228
461 1 12.1124 6.66722 12.1118
226 1 14.7542 1.27827 9.42957
228 1 14.8012 3.99358 9.40018
414 1 14.8015 1.37793 12.1121
416 1 14.7603 4.08826 12.0753
274 1 14.7706 6.6532 9.35936
462 1 14.79 6.77502 12.0837
231 2 18.8654 -0.0355197 8.05929
232 2 16.1076 2.6593 8.05813
237 1 17.4369 1.33542 9.42859
238 1 20.1909 1.36363 9.36708
239 1 17.4585 4.01139 9.43726
240 1 20.1545 4.03205 9.39268
421 2 16.1228 -0.0312893 10.7662
422 2 18.7786 2.66511 10.7549
423 2 18.7961 0.00414321 13.464
424 2 16.1209 2.67147 13.391
425 1 17.4728 1.35507 12.0917
426 1 20.0922 1.37142 12.0956
427 1 17.4637 4.03148 12.1253
428 1 20.1506 3.99844 12.0702
279 2 18.7853 5.37209 8.0514
285 1 17.4607 6.75417 9.38921
286 1 20.1503 6.72824 9.39487
469 2 16.0933 5.4115 10.7418
471 2 18.7854 5.37653 13.4393
473 1 17.5232 6.72058 12.0634
474 1 20.2131 6.72251 12.0971
244 2 -0.0285213 8.04094 8.09312
251 1 1.39822 9.36811 9.43755
252 1 4.00675 9.41042 9.40658
434 2 2.69369 8.03247 10.7685
436 2 -0.0657296 8.0476 13.4549
439 1 1.31564 9.51794 12.1211
440 1 4.0413 9.39243 12.1102
291 2 2.68772 10.7502 8.08288
292 2 0.027782 13.4301 8.07611
297 1 1.33926 12.0833 9.43371
298 1 4.05434 12.1136 9.45535
481 2 -0.0119145 10.7807 10.7582
482 2 2.69058 13.4455 10.7622
483 2 2.68488 10.7808 13.4589
484 2 0.0298277 13.4783 13.4311
485 1 1.4145 12.1807 12.1012
486 1 4.04318 12.0402 12.1287
256 2 5.36249 8.05339 8.05575
263 1 6.70648 9.41636 9.41796
448 2 5.35224 8.07686 13.4842
451 1 6.70053 9.39077 12.1463
304 2 5.38223 13.4671 8.08715
309 1 6.78023 12.1132 9.46104
493 2 5.37816 10.7123 10.796
496 2 5.44916 13.473 13.5117
497 1 6.749 12.0523 12.1075
264 1 9.42028 9.41491 9.43645
446 2 8.04359 8.07313 10.7743
452 1 9.46475 9.44786 12.1191
303 2 8.07861 10.7231 8.10304
310 1 9.50541 12.148 9.47058
494 2 8.09825 13.4259 10.7929
495 2 8.05503 10.7537 13.5045
498 1 9.43699 12.1164 12.1727
268 2 10.7243 8.0321 8.07821
275 1 12.1213 9.41633 9.39034
458 2 13.4413 8.05162 10.7679
460 2 10.7556 8.11812 13.4444
463 1 12.1379 9.39032 12.0992
315 2 13.4809 10.7819 8.12989
316 2 10.8077 13.4343 8.07763
321 1 12.2128 12.135 9.41016
505 2 10.7571 10.7734 10.7491
506 2 13.4715 13.4654 10.761
507 2 13.5149 10.7617 13.4323
508 2 10.7826 13.4565 13.4449
509 1 12.1107 12.102 12.1203
276 1 14.8396 9.38046 9.4312
464 1 14.8032 9.41692 12.1197
322 1 14.8721 12.0945 9.4031
510 1 14.7722 12.1046 12.1002
280 2 16.1299 8.08539 8.07436
287 1 17.494 9.39774 9.45559
288 1 20.2094 9.43471 9.42291
470 2 18.7988 8.08049 10.7194
472 2 16.099 8.03288 13.457
475 1 17.4814 9.40221 12.0698
476 1 20.1494 9.34958 12.083
327 2 18.8967 10.735 8.05204
328 2 16.1834 13.4351 8.10405
333 1 17.5144 12.0602 9.49031
334 1 20.1863 12.108 9.43055
517 2 16.1765 10.7655 10.7575
518 2 18.8414 13.4139 10.7705
519 2 18.8258 10.7544 13.4452
520 2 16.1734 13.4361 13.4654
521 1 17.5167 12.0778 12.1382
522 1 20.192 12.1317 12.1261
299 1 1.39635 14.7863 9.43457
300 1 4.03314 14.785 9.34234
487 1 1.32343 14.878 12.0826
488 1 4.05496 14.7491 12.0831
339 2 2.64762 16.1713 8.07744
340 2 -0.00454639 18.8568 8.11159
345 1 1.31624 17.4613 9.46261
346 1 4.01153 17.4147 9.43412
347 1 1.34239 20.1939 9.42885
348 1 4.0566 20.1408 9.40276
529 2 -0.0304137 16.1424 10.7822
530 2 2.70277 18.81 10.7969
531 2 2.73725 16.1126 13.4646
532 2 0.00744899 18.8205 13.4651
533 1 1.32425 17.5205 12.1254
534 1 4.07182 17.4933 12.1238
535 1 1.3773 20.18 12.1215
536 1 4.01093 20.1678 12.127
311 1 6.74018 14.8008 9.40185
499 1 6.71688 14.7553 12.0814
352 2 5.40036 18.8407 8.09384
357 1 6.7369 17.4711 9.45276
359 1 6.72457 20.1634 9.41018
541 2 5.41916 16.1033 10.7661
544 2 5.41819 18.8345 13.4491
545 1 6.73572 17.4457 12.1293
547 1 6.71191 20.1979 12.1183
312 1 9.4665 14.8118 9.44536
500 1 9.41083 14.7835 12.1247
351 2 8.10712 16.1333 8.11266
358 1 9.38378 17.4813 9.38105
360 1 9.44194 20.1916 9.47432
542 2 8.08385 18.8788 10.7783
543 2 8.08774 16.1697 13.4453
546 1 9.44567 17.4741 12.101
548 1 9.36588 20.1791 12.1324
323 1 12.1103 14.8438 9.43058
511 1 12.1329 14.7525 12.1097
363 2 13.4774 16.1888 8.0664
364 2 10.7436 18.8506 8.05912
369 1 12.0849 17.5495 9.43989
371 1 12.0999 20.2183 9.47894
553 2 10.7411 16.1678 10.7073
554 2 13.4313 18.8637 10.779
555 2 13.4396 16.1562 13.4409
556 2 10.7827 18.855 13.435
557 1 12.1193 17.4368 12.0577
559 1 12.0771 20.1575 12.1189
324 1 14.7958 14.83 9.41822
512 1 14.832 14.8215 12.1504
370 1 14.8043 17.5152 9.34422
372 1 14.7857 20.1842 9.39934
558 1 14.7775 17.5405 12.0562
560 1 14.7559 20.2033 12.1429
335 1 17.5355 14.7432 9.42538
336 1 20.2266 14.808 9.41936
523 1 17.494 14.7425 12.152
524 1 20.1899 14.8092 12.1253
375 2 18.8624 16.1356 8.07881
376 2 16.175 18.8847 8.09079
381 1 17.5285 17.4006 9.44522
382 1 20.2021 17.5711 9.451
383 1 17.4258 20.1402 9.41597
384 1 20.1592 20.2073 9.45864
565 2 16.1745 16.1518 10.7561
566 2 18.8189 18.8572 10.7813
567 2 18.8875 16.165 13.4685
568 2 16.1641 18.8734 13.4432
569 1 17.4824 17.5004 12.072
570 1 20.1897 17.5175 12.1277
571 1 17.4798 20.2064 12.0601
572 1 20.1812 20.206 12.1443
393 1 1.30634 1.33601 14.8021
394 1 4.00033 1.35774 14.8075
395 1 1.2543 4.00468 14.7869
396 1 3.95176 4.06149 14.759
577 2 -0.0289322 -0.0214616 16.1584
578 2 2.63174 2.68422 16.1404
579 2 2.64269 0.0593144 18.8393
580 2 -0.0405164 2.67506 18.8498
581 1 1.29984 1.38637 17.4964
582 1 3.99682 1.28427 17.5283
583 1 1.30119 4.05705 17.4911
584 1 3.98614 3.97019 17.4327
585 1 1.34112 1.37859 20.1949
586 1 4.01428 1.41453 20.192
587 1 1.35483 4.04238 20.161
588 1 4.0544 4.04143 20.1511
441 1 1.32518 6.73562 14.8263
442 1 4.02446 6.70768 14.7966
625 2 0.0155435 5.35515 16.1434
627 2 2.70785 5.36682 18.7999
629 1 1.38411 6.71793 17.497
630 1 4.04623 6.72968 17.5091
633 1 1.41766 6.70058 20.1944
634 1 4.04249 6.73859 20.1887
405 1 6.69305 1.36709 14.8138
407 1 6.63342 4.0837 14.7881
589 2 5.35581 0.0221262 16.1687
592 2 5.34087 2.71387 18.8492
593 1 6.66548 1.44012 17.5168
595 1 6.71399 4.07938 17.513
597 1 6.71097 1.39209 20.1661
599 1 6.7219 4.03849 20.2118
453 1 6.65586 6.79527 14.848
637 2 5.32719 5.41449 16.1423
641 1 6.73574 6.80042 17.5221
645 1 6.70019 6.79098 20.1873
406 1 9.4348 1.35891 14.8246
408 1 9.40732 4.0556 14.7699
590 2 8.01496 2.73017 16.1755
591 2 8.03559 0.0772079 18.8221
594 1 9.32657 1.34496 17.4968
596 1 9.41158 4.05362 17.4349
598 1 9.46721 1.33438 20.1816
600 1 9.36675 4.05787 20.1578
454 1 9.37437 6.77822 14.7676
639 2 8.07675 5.40593 18.8374
642 1 9.37768 6.76948 17.5082
646 1 9.41286 6.73288 20.197
417 1 12.0928 1.3894 14.8403
419 1 12.0881 4.02035 14.8014
601 2 10.7471 0.0306779 16.1892
602 2 13.3923 2.67282 16.1143
603 2 13.425 0.00695771 18.8478
604 2 10.6961 2.75191 18.8518
605 1 12.09 1.37467 17.5805
607 1 12.0658 4.07097 17.4951
609 1 12.0897 1.34723 20.2253
611 1 12.1217 4.04009 20.1762
465 1 12.0547 6.7299 14.8083
649 2 10.7445 5.38501 16.1549
651 2 13.5154 5.36117 18.8215
653 1 12.1139 6.73186 17.5064
657 1 12.0794 6.69405 20.2297
418 1 14.7307 1.35313 14.782
420 1 14.8007 4.03975 14.7159
606 1 14.7329 1.31011 17.4733
608 1 14.7644 4.001 17.3995
610 1 14.7758 1.3589 20.2152
612 1 14.8894 4.05362 20.1245
466 1 14.7457 6.75132 14.7652
654 1 14.824 6.71989 17.4748
658 1 14.7929 6.75397 20.1875
429 1 17.4042 1.33199 14.7619
430 1 20.1598 1.30054 14.7537
431 1 17.4395 3.96575 14.8038
432 1 20.1193 4.01299 14.7258
613 2 16.1377 0.0245388 16.1241
614 2 18.8174 2.63753 16.1471
615 2 18.7935 0.0086969 18.8181
616 2 16.1281 2.66912 18.799
617 1 17.5029 1.33102 17.4112
618 1 20.1353 1.31921 17.494
619 1 17.4792 4.05092 17.4715
620 1 20.2077 3.9826 17.4782
621 1 17.4702 1.30806 20.1695
622 1 20.2083 1.34996 20.184
623 1 17.5433 3.98726 20.1523
624 1 20.2234 4.01966 20.1879
477 1 17.4195 6.66657 14.8033
478 1 20.1916 6.6843 14.7787
661 2 16.088 5.33277 16.1067
663 2 18.8522 5.39637 18.8598
665 1 17.5034 6.70566 17.4476
666 1 20.2175 6.67667 17.4855
669 1 17.5275 6.69498 20.1648
670 1 20.225 6.73991 20.1936
443 1 1.3062 9.43261 14.8011
444 1 3.98041 9.46629 14.8379
626 2 2.71124 8.1086 16.1475
628 2 0.0555186 8.04464 18.8282
631 1 1.40867 9.43682 17.4678
632 1 4.07403 9.49157 17.4971
635 1 1.41495 9.38389 20.2291
636 1 4.11884 9.48 20.1743
489 1 1.33258 12.0679 14.7768
490 1 4.04421 12.1535 14.7972
673 2 0.0239694 10.7465 16.1083
674 2 2.72024 13.4517 16.1829
675 2 2.71261 10.7607 18.8704
676 2 0.013594 13.4487 18.8233
677 1 1.39486 12.169 17.4593
678 1 4.0868 12.1778 17.5195
681 1 1.38314 12.0843 20.1723
682 1 4.01469 12.1353 20.1785
455 1 6.67761 9.44157 14.7923
640 2 5.40891 8.14772 18.8465
643 1 6.76685 9.53655 17.5145
647 1 6.78103 9.50099 20.2556
501 1 6.74388 12.1349 14.8156
685 2 5.37802 10.798 16.1573
688 2 5.42871 13.5165 18.8615
689 1 6.76145 12.1809 17.462
693 1 6.75039 12.1559 20.1731
456 1 9.42156 9.43266 14.7561
638 2 8.08421 8.10052 16.1568
644 1 9.46383 9.47417 17.4747
648 1 9.51543 9.43619 20.1978
502 1 9.46749 12.1042 14.8394
686 2 8.08084 13.4766 16.1953
687 2 8.09967 10.8087 18.8604
690 1 9.50336 12.1286 17.5126
694 1 9.4543 12.1445 20.2329
467 1 12.1109 9.4552 14.772
650 2 13.4769 8.07737 16.1448
652 2 10.7936 8.08473 18.8233
655 1 12.1308 9.40836 17.4479
659 1 12.1989 9.43676 20.1859
513 1 12.1669 12.1098 14.8211
697 2 10.7767 10.7839 16.1327
698 2 13.5113 13.4807 16.1651
699 2 13.4755 10.8019 18.8711
700 2 10.8105 13.4624 18.8377
701 1 12.2111 12.1374 17.4758
705 1 12.1555 12.141 20.231
468 1 14.7814 9.43687 14.8168
656 1 14.8201 9.3891 17.5071
660 1 14.8708 9.46619 20.2161
514 1 14.8183 12.0933 14.8283
702 1 14.8703 12.0978 17.511
706 1 14.876 12.1954 20.2137
479 1 17.4825 9.37697 14.7801
480 1 20.1047 9.39387 14.8089
662 2 18.838 8.01791 16.1127
664 2 16.1709 8.07763 18.8238
667 1 17.5129 9.41213 17.487
668 1 20.2986 9.32007 17.4391
671 1 17.5469 9.41284 20.1435
672 1 20.2591 9.44948 20.126
525 1 17.4858 12.1293 14.8256
526 1 20.1572 12.1108 14.7537
709 2 16.1725 10.7374 16.1588
710 2 18.8761 13.4344 16.1143
711 2 18.8795 10.7496 18.8288
712 2 16.203 13.4726 18.8305
713 1 17.5594 12.1076 17.5255
714 1 20.2548 12.0275 17.4458
717 1 17.5811 12.1505 20.1601
718 1 20.273 12.1241 20.1664
491 1 1.37136 14.7898 14.7796
492 1 4.0575 14.8684 14.8074
679 1 1.30004 14.8597 17.491
680 1 4.03933 14.8348 17.5366
683 1 1.35018 14.7803 20.1642
684 1 4.06019 14.7974 20.2107
537 1 1.40549 17.476 14.7619
538 1 4.0166 17.5808 14.8016
539 1 1.26255 20.167 14.7996
540 1 4.01519 20.2364 14.7821
721 2 0.0457371 16.1612 16.1391
722 2 2.67893 18.8516 16.1042
723 2 2.70124 16.1603 18.8298
724 2 0.011031 18.8716 18.8483
725 1 1.37298 17.5278 17.4801
726 1 4.0617 17.4824 17.4874
727 1 1.30624 20.2131 17.4905
728 1 3.98539 20.2277 17.4411
729 1 1.30639 17.5003 20.1464
730 1 3.99115 17.4651 20.2127
731 1 1.32896 20.2151 20.2464
732 1 4.07088 20.2441 20.139
503 1 6.75727 14.8188 14.7683
691 1 6.72933 14.8789 17.5125
695 1 6.74932 14.8738 20.1977
549 1 6.72348 17.5076 14.8153
551 1 6.67682 20.1475 14.8327
733 2 5.38293 16.201 16.183
736 2 5.35209 18.8758 18.8501
737 1 6.72007 17.5803 17.5204
739 1 6.75808 20.3075 17.5112
741 1 6.69995 17.5834 20.214
743 1 6.70761 20.2531 20.2055
504 1 9.44164 14.8565 14.8492
692 1 9.45244 14.7995 17.5799
696 1 9.43522 14.8348 20.2589
550 1 9.4143 17.5492 14.8115
552 1 9.35665 20.2209 14.8303
734 2 8.0606 18.895 16.1817
735 2 8.06809 16.1865 18.8912
738 1 9.45534 17.4808 17.5097
740 1 9.39098 20.1679 17.5173
742 1 9.4061 17.5206 20.2157
744 1 9.41959 20.2046 20.22
515 1 12.1081 14.8561 14.7852
703 1 12.1343 14.8369 17.5259
707 1 12.0936 14.8843 20.2481
561 1 12.1774 17.5232 14.8072
563 1 12.0925 20.2766 14.8036
745 2 10.7865 16.1335 16.1837
746 2 13.4314 18.8757 16.1382
747 2 13.477 16.187 18.8567
748 2 10.7592 18.885 18.8218
749 1 12.1226 17.4927 17.5113
751 1 12.0648 20.1862 17.5291
753 1 12.065 17.5256 20.237
755 1 12.0918 20.2048 20.1803
516 1 14.852 14.7946 14.818
704 1 14.8175 14.8323 17.5408
708 1 14.7996 14.8106 20.1957
562 1 14.9108 17.5538 14.7712
564 1 14.8031 20.1906 14.8037
750 1 14.8173 17.4972 17.498
752 1 14.7438 20.1909 17.5257
754 1 14.7748 17.5705 20.2106
756 1 14.8542 20.2257 20.175
527 1 17.5768 14.8559 14.8487
528 1 20.2253 14.7674 14.7469
715 1 17.4853 14.8363 17.4945
716 1 20.163 14.8013 17.5009
719 1 17.5099 14.8168 20.1698
720 1 20.2447 14.7662 20.2007
573 1 17.5769 17.4989 14.7438
574 1 20.2418 17.4881 14.8532
575 1 17.4404 20.1652 14.7752
576 1 20.1553 20.1885 14.8173
757 2 16.1883 16.1529 16.0804
758 2 18.8332 18.8138 16.1645
759 2 18.8542 16.156 18.8765
760 2 16.1728 18.8221 18.8334
761 1 17.5183 17.5383 17.4836
762 1 20.2387 17.568 17.4971
763 1 17.4628 20.2017 17.4787
764 1 20.1569 20.2084 17.5338
765 1 17.4722 17.5188 20.1964
766 1 20.1899 17.5215 20.1853
767 1 17.5212 20.214 20.1443
768 1 20.1915 20.1831 20.1442
ITEM: TIMESTEP
2000
ITEM: NUMBER OF ATOMS
768
ITEM: BOX BOUNDS pp pp pp
1.4379489267608357e-03 2.1533264583464074e+01
1.4379489267608357e-03 2.1533264583464074e+01
1.4379489267590593e-03 2.1533264583464078e+01
ITEM: ATOMS id type x y z
1 2 0.0130059 0.0116882 -0.0605207
2 2 2.69133 2.67047 0.0188179
3 2 2.72377 0.0461845 2.69713
4 2 -0.0469314 2.7131 2.67542
5 1 1.32605 1.38184 1.3846
6 1 4.01352 1.34288 1.36945
7 1 1.30177 4.03264 1.33231
8 1 4.03081 4.06486 1.36107
9 1 1.32904 1.38089 4.06512
10 1 4.06296 1.34244 4.03304
11 1 1.29754 4.03781 3.98529
12 1 4.02614 4.05198 4.03671
193 2 0.0098811 -0.0130003 5.42177
194 2 2.66619 2.71732 5.36967
197 1 1.41948 1.36431 6.80441
198 1 4.09595 1.30847 6.74411
199 1 1.31874 4.03175 6.69325
200 1 3.98196 4.03251 6.72711
49 2 0.0250784 5.34747 -0.0638155
51 2 2.62247 5.38032 2.70639
53 1 1.39609 6.71468 1.331
54 1 4.08679 6.68838 1.37885
57 1 1.2941 6.70923 3.98756
58 1 4.01428 6.72825 4.08978
241 2 -0.0497269 5.38217 5.3783
245 1 1.34819 6.719 6.68017
246 1 4.07603 6.71886 6.76494
13 2 5.40193 -0.0234157 0.0297808
16 2 5.36102 2.68794 2.75249
17 1 6.72775 1.33414 1.35811
19 1 6.76168 4.031 1.33967
21 1 6.73954 1.38212 4.06754
23 1 6.73269 4.0676 4.03418
205 2 5.39321 0.0346961 5.40999
209 1 6.77279 1.38577 6.73279
211 1 6.67067 4.06565 6.71652
61 2 5.41908 5.39627 0.033485
65 1 6.78699 6.69002 1.28508
69 1 6.7318 6.75437 4.05311
253 2 5.38751 5.41864 5.3512
257 1 6.71334 6.75718 6.73883
14 2 8.09699 2.67423 0.00674737
15 2 8.10511 0.00903388 2.71772
18 1 9.43791 1.30073 1.32154
20 1 9.45799 4.04346 1.39843
22 1 9.44884 1.33956 4.00438
24 1 9.40972 4.0929 4.09387
206 2 8.06737 2.73714 5.40303
210 1 9.47194 1.31317 6.72974
212 1 9.38992 4.02019 6.73644
63 2 8.09326 5.35905 2.66564
66 1 9.43595 6.75113 1.39566
70 1 9.42248 6.728 4.05921
258 1 9.38659 6.76547 6.75439
25 2 10.7988 -0.0116137 0.00228483
26 2 13.4482 2.68548 -0.00588181
27 2 13.4199 -0.0177981 2.73113
28 2 10.759 2.70065 2.7362
29 1 12.0862 1.34081 1.36463
31 1 12.1543 4.00843 1.35249
33 1 12.1005 1.37051 4.06659
35 1 12.1294 4.07886 4.01635
217 2 10.7577 -0.00919027 5.40433
218 2 13.4839 2.66008 5.34075
221 1 12.1 1.34573 6.76285
223 1 12.0715 3.99382 6.72909
73 2 10.8085 5.38856 0.0174439
75 2 13.4736 5.38465 2.67607
77 1 12.1775 6.6505 1.2794
81 1 12.0993 6.74798 4.05666
265 2 10.7718 5.36515 5.42859
269 1 12.0795 6.71118 6.74996
30 1 14.7976 1.37628 1.36396
32 1 14.8101 4.11068 1.31233
34 1 14.7978 1.31502 4.04045
36 1 14.8155 4.00532 4.02142
222 1 14.7786 1.34386 6.69319
224 1 14.7955 4.03153 6.71107
78 1 14.8269 6.73984 1.33795
82 1 14.823 6.66793 4.01463
270 1 14.7846 6.72356 6.74759
37 2 16.1397 0.0222755 -0.0101783
38 2 18.8663 2.69687 -0.0367318
39 2 18.8319 0.0481227 2.7361
40 2 16.1638 2.69132 2.67482
41 1 17.4378 1.33191 1.35894
42 1 20.1602 1.38552 1.35226
43 1 17.496 3.99714 1.30671
44 1 20.1412 4.01913 1.31814
45 1 17.5389 1.43216 4.04763
46 1 20.1603 1.38882 4.04087
47 1 17.4867 4.02155 4.01075
48 1 20.1692 4.02783 4.05862
229 2 16.2056 0.0098392 5.41321
230 2 18.9012 2.70325 5.42788
233 1 17.5277 1.32994 6.78833
234 1 20.264 1.35866 6.72588
235 1 17.4947 3.99046 6.71795
236 1 20.1606 4.03949 6.7582
85 2 16.1837 5.39629 -0.0279187
87 2 18.8303 5.36244 2.72374
89 1 17.4905 6.71346 1.36911
90 1 20.242 6.64785 1.37927
93 1 17.4982 6.74937 4.05864
94 1 20.1917 6.70762 4.0655
277 2 16.1172 5.34071 5.38295
281 1 17.4942 6.67184 6.73222
282 1 20.1408 6.70974 6.76726
50 2 2.66329 8.1369 -0.0304832
52 2 -0.032345 8.03545 2.69126
55 1 1.33468 9.41052 1.31117
56 1 4.0308 9.43038 1.3092
59 1 1.34141 9.4191 4.06855
60 1 4.05678 9.39739 4.03107
242 2 2.71727 8.03823 5.37301
247 1 1.3367 9.39968 6.74014
248 1 3.99062 9.32351 6.67955
97 2 -0.0171239 10.7405 0.0122358
98 2 2.66206 13.4539 -0.033901
99 2 2.67886 10.7729 2.71723
100 2 -0.0307969 13.4619 2.73025
101 1 1.37553 12.1121 1.34653
102 1 4.02165 12.1362 1.34533
105 1 1.3247 12.1189 4.04462
106 1 4.02554 12.0791 4.05239
289 2 0.0378333 10.7532 5.37723
290 2 2.68557 13.4124 5.43939
293 1 1.38357 12.0941 6.74999
294 1 4.03651 12.0572 6.7875
64 2 5.37134 8.10396 2.69559
67 1 6.70776 9.42904 1.355
71 1 6.7696 9.40296 4.05797
259 1 6.74439 9.45088 6.77013
109 2 5.37803 10.7781 0.0278888
112 2 5.35635 13.4657 2.70895
113 1 6.67829 12.0719 1.43088
117 1 6.69844 12.1348 4.10026
301 2 5.3962 10.7475 5.40778
305 1 6.74686 12.075 6.75483
62 2 8.14495 8.06474 0.0408521
68 1 9.40141 9.44996 1.34077
72 1 9.44189 9.46519 3.97686
254 2 8.08872 8.06698 5.41083
260 1 9.45915 9.46773 6.68815
110 2 8.08317 13.4492 0.0250559
111 2 8.08253 10.7761 2.73468
114 1 9.40453 12.1604 1.36122
118 1 9.42724 12.1625 4.00592
302 2 8.12613 13.5074 5.38033
306 1 9.4616 12.144 6.67864
74 2 13.5189 8.05274 -0.00537776
76 2 10.7758 8.06672 2.67815
79 1 12.1174 9.33673 1.37258
83 1 12.1703 9.41919 4.03317
266 2 13.4735 8.05708 5.37802
271 1 12.1764 9.40939 6.72595
121 2 10.769 10.7725 0.023774
122 2 13.451 13.4745 -0.013428
123 2 13.5058 10.7483 2.67852
124 2 10.758 13.4903 2.71544
125 1 12.1401 12.1176 1.3654
129 1 12.1697 12.1454 4.07461
313 2 10.7951 10.7825 5.32421
314 2 13.4568 13.4593 5.39114
317 1 12.1317 12.084 6.76899
80 1 14.7991 9.43296 1.33166
84 1 14.7873 9.39119 4.0874
272 1 14.7879 9.38789 6.77754
126 1 14.8362 12.1005 1.37632
130 1 14.8467 12.0631 4.0279
318 1 14.8354 12.1398 6.74001
86 2 18.8995 8.06134 -0.0197648
88 2 16.1698 8.07099 2.68816
91 1 17.528 9.40577 1.32462
92 1 20.1881 9.40232 1.31058
95 1 17.5106 9.39252 4.03528
96 1 20.1932 9.3906 3.98409
278 2 18.8243 8.05387 5.41039
283 1 17.4785 9.40438 6.71819
284 1 20.2 9.38342 6.71398
133 2 16.1974 10.79 0.0135206
134 2 18.8549 13.4866 0.015098
135 2 18.8605 10.8074 2.72585
136 2 16.1147 13.4778 2.68871
137 1 17.5194 12.0652 1.40946
138 1 20.2125 12.1196 1.33725
141 1 17.547 12.124 4.07041
142 1 20.1914 12.0842 4.10084
325 2 16.1511 10.7506 5.40391
326 2 18.8736 13.486 5.408
329 1 17.5586 12.1135 6.75824
330 1 20.2715 12.0771 6.71147
103 1 1.33728 14.8569 1.35353
104 1 4.016 14.8542 1.3666
107 1 1.29856 14.837 4.13072
108 1 3.99183 14.7992 4.03386
295 1 1.33816 14.8209 6.79477
296 1 4.04406 14.7585 6.72414
145 2 -0.0013919 16.1718 0.0276413
146 2 2.67991 18.8593 -0.0201508
147 2 2.69948 16.1528 2.71169
148 2 -0.00639181 18.8801 2.73032
149 1 1.30321 17.573 1.3572
150 1 4.04698 17.5042 1.35506
151 1 1.38926 20.2265 1.39018
152 1 4.03892 20.1917 1.37844
153 1 1.37399 17.5657 3.96158
154 1 4.08598 17.5132 4.05946
155 1 1.35761 20.2415 4.00448
156 1 4.07429 20.2025 4.03824
337 2 0.00453626 16.2218 5.37423
338 2 2.72466 18.8629 5.3076
341 1 1.30051 17.5083 6.62632
342 1 4.03141 17.4611 6.71868
343 1 1.33422 20.2014 6.67959
344 1 3.9924 20.1415 6.77338
115 1 6.69662 14.854 1.38263
119 1 6.74478 14.8177 4.05451
307 1 6.70145 14.7713 6.7453
157 2 5.37985 16.1526 -0.054842
160 2 5.39748 18.8303 2.67857
161 1 6.72366 17.5153 1.31223