ITEM: TIMESTEP
1000
ITEM: NUMBER OF ATOMS
768
ITEM: BOX BOUNDS pp pp pp
-1.7512477493570412e-02 2.1552215009884439e+01
-1.7512477493570412e-02 2.1552215009884439e+01
-1.7512477493568636e-02 2.1552215009884442e+01
ITEM: ATOMS id type x y z
1 2 -0.0432984 0.017747 0.00782231
2 2 2.73201 2.78388 0.0209498
3 2 2.65711 -0.00522172 2.72312
4 2 -0.0426327 2.62928 2.73401
5 1 1.3253 1.39726 1.38199
6 1 4.01281 1.37734 1.31963
7 1 1.38064 4.01351 1.36023
8 1 4.0702 4.12753 1.31976
9 1 1.35776 1.31573 4.0194
10 1 4.10141 1.32553 4.03202
11 1 1.25489 4.02007 4.04197
12 1 4.04179 4.01212 3.98906
193 2 -0.104898 -0.0774245 5.37523
194 2 2.64773 2.62705 5.35013
197 1 1.2346 1.30437 6.72094
198 1 3.97404 1.36497 6.72795
199 1 1.31339 4.01096 6.6977
200 1 4.05059 4.04353 6.73648
49 2 0.02655 5.34402 -0.0117435
51 2 2.69574 5.36699 2.68263
53 1 1.35219 6.70971 1.39168
54 1 4.05408 6.80987 1.33652
57 1 1.33359 6.72706 4.03505
58 1 4.03438 6.65373 4.03877
241 2 -0.037526 5.40627 5.34319
245 1 1.3121 6.67679 6.7656
246 1 4.00785 6.70551 6.76773
13 2 5.28726 0.0237719 -0.0562085
16 2 5.40116 2.64185 2.6261
17 1 6.67619 1.37466 1.38898
19 1 6.69866 4.02773 1.30987
21 1 6.78438 1.22131 3.97077
23 1 6.74484 3.9512 4.02656
205 2 5.39914 -0.0481857 5.37259
209 1 6.61479 1.199 6.7823
211 1 6.77161 3.91813 6.8063
61 2 5.41804 5.42981 0.0219758
65 1 6.77356 6.74513 1.34426
69 1 6.77433 6.69863 4.05844
253 2 5.36598 5.2856 5.35571
257 1 6.73991 6.70161 6.73096
14 2 8.10922 2.70453 -0.0604787
15 2 8.12723 -0.0288762 2.65289
18 1 9.42237 1.3186 1.3238
20 1 9.44136 4.07138 1.3313
22 1 9.44609 1.40064 4.00715
24 1 9.40455 4.03789 4.0177
206 2 8.13547 2.72092 5.33558
210 1 9.33863 1.38699 6.69559
212 1 9.55711 4.04306 6.6907
63 2 8.11676 5.41234 2.61759
66 1 9.42966 6.77835 1.2555
70 1 9.45591 6.74961 4.02655
258 1 9.44741 6.66854 6.74397
25 2 10.7682 0.010198 -0.00862426
26 2 13.4644 2.67861 -0.0612357
27 2 13.4955 -0.0506059 2.68567
28 2 10.7461 2.65184 2.70069
29 1 12.0474 1.29289 1.35228
31 1 12.1367 3.95611 1.29071
33 1 12.1637 1.30683 4.03189
35 1 12.1365 3.97123 4.03535
217 2 10.7817 -0.0518867 5.38636
218 2 13.4225 2.68709 5.33784
221 1 12.0525 1.22157 6.76915
223 1 12.1277 3.96116 6.73411
73 2 10.8145 5.30646 0.00126763
75 2 13.4678 5.38604 2.68944
77 1 12.1171 6.63525 1.34855
81 1 12.1758 6.66651 4.08201
265 2 10.8236 5.41754 5.40277
269 1 12.1089 6.67972 6.7951
30 1 14.8364 1.37009 1.37451
32 1 14.8041 4.05444 1.37098
34 1 14.8456 1.37148 4.0742
36 1 14.824 3.99615 4.02572
222 1 14.744 1.37547 6.74404
224 1 14.7605 3.99667 6.70819
78 1 14.8134 6.73934 1.42484
82 1 14.91 6.67581 4.16085
270 1 14.7739 6.70242 6.73752
37 2 16.1527 -0.00205234 -0.0706007
38 2 18.8533 2.70954 -0.0529958
39 2 18.8496 -0.0637436 2.60503
40 2 16.1826 2.66149 2.64355
41 1 17.5184 1.28192 1.27733
42 1 20.2025 1.26705 1.30701
43 1 17.5658 4.02252 1.32066
44 1 20.196 4.04177 1.27261
45 1 17.4646 1.35936 4.04249
46 1 20.1738 1.28227 3.97877
47 1 17.5137 4.0509 4.03876
48 1 20.1493 3.95347 3.98891
229 2 16.1567 0.0442358 5.37546
230 2 18.8201 2.68937 5.32311
233 1 17.4782 1.32362 6.78303
234 1 20.1154 1.29613 6.70447
235 1 17.4803 4.02705 6.74381
236 1 20.1953 4.00711 6.60732
85 2 16.2212 5.39389 0.0416032
87 2 18.947 5.36448 2.62961
89 1 17.5222 6.70339 1.26197
90 1 20.2567 6.76212 1.3724
93 1 17.5857 6.81879 3.99697
94 1 20.2264 6.73271 4.05985
277 2 16.1083 5.3151 5.44515
281 1 17.4276 6.70222 6.69774
282 1 20.0773 6.74033 6.79354
50 2 2.7101 8.08357 -0.0203874
52 2 0.0449442 8.11182 2.6526
55 1 1.39002 9.40846 1.37509
56 1 4.10176 9.45911 1.2237
59 1 1.39855 9.50811 3.99443
60 1 4.08999 9.37438 3.92523
242 2 2.7313 8.10506 5.33708
247 1 1.34728 9.36125 6.71178
248 1 4.0249 9.41823 6.66623
97 2 0.0729477 10.7757 -0.0509938
98 2 2.66377 13.4713 -0.0772518
99 2 2.82205 10.7564 2.61462
100 2 0.094858 13.4563 2.63173
101 1 1.45784 12.1719 1.29291
102 1 4.17057 12.2178 1.28947
105 1 1.35454 12.1905 4.04183
106 1 3.98029 12.1215 4.06931
289 2 0.0371787 10.7231 5.32773
290 2 2.722 13.483 5.44409
293 1 1.35939 12.1233 6.73883
294 1 4.05698 12.1281 6.73303
64 2 5.45944 8.07687 2.69663
67 1 6.77746 9.46085 1.42818
71 1 6.74278 9.4422 4.04265
259 1 6.75448 9.42703 6.75793
109 2 5.4829 10.8272 -0.0441148
112 2 5.43494 13.5241 2.67565
113 1 6.88904 12.0495 1.24571
117 1 6.74714 12.1009 3.95193
301 2 5.4214 10.7761 5.3532
305 1 6.72315 12.1065 6.62215
62 2 8.13539 8.12422 -0.00874821
68 1 9.44409 9.46819 1.33729
72 1 9.43627 9.4016 4.02822
254 2 8.05494 8.06529 5.39191
260 1 9.42101 9.36381 6.72052
110 2 8.13108 13.5034 -0.0129595
111 2 8.18077 10.7926 2.72671
114 1 9.52426 12.1532 1.40796
118 1 9.48583 12.1181 4.11942
302 2 8.03979 13.5096 5.40387
306 1 9.46231 12.0195 6.75629
74 2 13.427 7.99974 0.0141424
76 2 10.7943 8.05032 2.67951
79 1 12.1305 9.32895 1.2566
83 1 12.1986 9.34893 4.01256
266 2 13.5331 8.02274 5.46695
271 1 12.1464 9.36214 6.73027
121 2 10.8168 10.8008 0.0522899
122 2 13.4817 13.5032 -0.026618
123 2 13.5235 10.7689 2.69585
124 2 10.8105 13.4279 2.7039
125 1 12.1998 12.0766 1.3024
129 1 12.2086 12.0164 4.00854
313 2 10.8585 10.6393 5.42419
314 2 13.5137 13.4406 5.43551
317 1 12.2169 11.9953 6.73505
80 1 14.8128 9.40318 1.24902
84 1 14.833 9.34146 4.03318
272 1 14.8504 9.47755 6.77571
126 1 14.8409 12.0641 1.35303
130 1 14.8385 12.129 4.0697
318 1 14.8294 12.1078 6.75717
86 2 18.8962 8.1168 -0.0902853
88 2 16.1699 8.02789 2.69848
91 1 17.47 9.4268 1.28446
92 1 20.2324 9.43934 1.24251
95 1 17.5054 9.51417 4.02179
96 1 20.1943 9.3976 3.97008
278 2 18.8171 8.11869 5.35048
283 1 17.5079 9.42349 6.7214
284 1 20.2219 9.35318 6.70952
133 2 16.1744 10.7661 -0.0336916
134 2 18.8351 13.4695 -0.0277061
135 2 18.8719 10.7679 2.65975
136 2 16.1276 13.453 2.62263
137 1 17.4943 12.0912 1.3304
138 1 20.2785 12.1291 1.34387
141 1 17.5076 12.2152 3.97936
142 1 20.1727 12.0978 4.05125
325 2 16.1323 10.7631 5.41308
326 2 18.8648 13.4466 5.37144
329 1 17.561 12.0546 6.66403
330 1 20.2769 12.0202 6.74503
103 1 1.313 14.7554 1.22371
104 1 4.02324 14.9432 1.35349
107 1 1.34559 14.9145 3.95586
108 1 4.08256 14.7784 4.04062
295 1 1.19349 14.8141 6.69163
296 1 3.96037 14.8263 6.71253
145 2 -0.0316329 16.1603 -0.0342884
146 2 2.68615 18.9482 -0.00603659
147 2 2.73836 16.1645 2.6979
148 2 -0.0813953 18.8605 2.7183
149 1 1.2639 17.5779 1.27665
150 1 4.00853 17.5669 1.34354
151 1 1.31828 20.293 1.37853
152 1 4.02054 20.2063 1.23862
153 1 1.32693 17.5763 4.07707
154 1 4.00013 17.4438 4.01042
155 1 1.29242 20.2068 4.01909
156 1 4.03406 20.2039 3.97278
337 2 -0.0713517 16.2011 5.36591
338 2 2.67614 18.8264 5.42294
341 1 1.30007 17.5271 6.84362
342 1 3.94911 17.4817 6.69991
343 1 1.29894 20.1582 6.74311
344 1 4.05748 20.1776 6.70138
115 1 6.77435 14.7871 1.31369
119 1 6.78669 14.7626 4.02069
307 1 6.67799 14.8088 6.72379
157 2 5.2983 16.2094 0.0125379
160 2 5.40203 18.9045 2.67863
161 1 6.71969 17.5506 1.34288
163 1 6.75481 20.2925 1.33347
165 1 6.66949 17.4237 4.00792
167 1 6.7258 20.1289 3.99155
349 2 5.33262 16.174 5.47429
353 1 6.70467 17.4741 6.71454
355 1 6.76181 20.1862 6.70032
116 1 9.48431 14.8076 1.36914
120 1 9.37108 14.8143 4.08711
308 1 9.43451 14.7351 6.77388
158 2 7.99704 18.9024 0.00685143
159 2 8.07548 16.183 2.78198
162 1 9.36581 17.5593 1.42359
164 1 9.4655 20.2047 1.33077
166 1 9.45032 17.5551 4.10836
168 1 9.39797 20.2901 4.09388
350 2 8.08749 18.8173 5.45108
354 1 9.38076 17.5045 6.73996
356 1 9.47069 20.2275 6.78123
127 1 12.1489 14.8784 1.39713
131 1 12.0686 14.6767 4.03059
319 1 12.1041 14.848 6.72392
169 2 10.7778 16.1933 0.0549334
170 2 13.4217 18.8841 0.00569191
171 2 13.4825 16.1872 2.71153
172 2 10.7657 18.8275 2.72983
173 1 12.0758 17.5359 1.38565
175 1 12.1686 20.1814 1.35848
177 1 12.078 17.4572 4.07056
179 1 12.1674 20.165 4.03887
361 2 10.7595 16.1074 5.43385
362 2 13.5213 18.8459 5.32528
365 1 12.046 17.5109 6.75091
367 1 12.1381 20.1621 6.73686
128 1 14.7525 14.7536 1.35977
132 1 14.7874 14.8913 4.06462
320 1 14.8226 14.8336 6.7258
174 1 14.7721 17.4304 1.38414
176 1 14.8101 20.2096 1.37246
178 1 14.8243 17.5724 4.0381
180 1 14.8546 20.2497 4.06826
366 1 14.7366 17.5069 6.64671
368 1 14.8569 20.1645 6.69182
139 1 17.4232 14.755 1.29591
140 1 20.2025 14.7765 1.36365
143 1 17.4435 14.8181 3.93864
144 1 20.2056 14.8027 3.98361
331 1 17.4579 14.7563 6.7857
332 1 20.1313 14.7951 6.76383
181 2 16.1399 16.1157 -0.0113666
182 2 18.817 18.8359 -0.064907
183 2 18.8336 16.1274 2.67375
184 2 16.2426 18.8694 2.67392
185 1 17.5354 17.4502 1.34289
186 1 20.1351 17.4422 1.3175
187 1 17.4455 20.2465 1.3414
188 1 20.171 20.1015 1.30891
189 1 17.4523 17.4561 4.04948
190 1 20.1382 17.5173 4.0562
191 1 17.506 20.1723 4.0193
192 1 20.1305 20.2052 4.08597
373 2 16.1549 16.1591 5.33605
374 2 18.8227 18.8161 5.3229
377 1 17.529 17.5153 6.7362
378 1 20.2058 17.4767 6.73791
379 1 17.5481 20.2367 6.76433
380 1 20.2301 20.1459 6.79147
195 2 2.69858 -0.0975241 8.08009
196 2 -0.0473722 2.67714 8.00999
201 1 1.29685 1.30701 9.51096
202 1 4.01852 1.19648 9.42023
203 1 1.25921 4.00795 9.37373
204 1 4.01449 4.07272 9.51455
385 2 -0.0834376 0.0270376 10.8009
386 2 2.654 2.69724 10.776
387 2 2.61053 -0.049314 13.4866
388 2 -0.163051 2.62336 13.439
389 1 1.25091 1.36499 12.2092
390 1 3.96766 1.34326 12.2011
391 1 1.28343 4.04408 12.0882
392 1 3.92586 4.00924 12.0872
243 2 2.65116 5.30776 8.14782
249 1 1.38039 6.66218 9.49013
250 1 4.09537 6.77628 9.37739
433 2 -0.157529 5.35138 10.7288
435 2 2.55402 5.38631 13.424
437 1 1.2793 6.7863 12.1956
438 1 4.01335 6.70016 12.1635
208 2 5.35347 2.66606 8.15148
213 1 6.65152 1.28754 9.47162
215 1 6.74939 3.98472 9.48691
397 2 5.34883 -0.0500559 10.8321
400 2 5.2689 2.69067 13.4999
401 1 6.64295 1.32212 12.121
403 1 6.63174 4.06544 12.199
261 1 6.72587 6.75034 9.47566
445 2 5.40166 5.41668 10.815
449 1 6.66613 6.75644 12.1981
207 2 8.05134 -0.0269084 8.06191
214 1 9.39913 1.27999 9.3833
216 1 9.45191 3.99052 9.47982
398 2 8.03778 2.64678 10.8286
399 2 7.98309 0.0228952 13.4624
402 1 9.35337 1.35344 12.1217
404 1 9.35193 4.05432 12.1347
255 2 8.03051 5.32252 8.07877
262 1 9.40373 6.72808 9.38744
447 2 8.00226 5.38543 13.4413
450 1 9.36719 6.69194 12.0258
219 2 13.4083 -0.0344443 8.06846
220 2 10.7805 2.67641 8.0379
225 1 12.0812 1.38301 9.42905
227 1 12.0739 4.0697 9.37597
409 2 10.7371 -0.0242889 10.7611
410 2 13.4321 2.65962 10.7564
411 2 13.4137 -0.00712121 13.4244
412 2 10.7642 2.68977 13.5236
413 1 12.0549 1.26294 12.1059
415 1 12.0733 3.96069 12.1161
267 2 13.4155 5.38964 8.07099
273 1 12.1794 6.71496 9.48038
457 2 10.7711 5.3033 10.7758
459 2 13.4264 5.42699 13.4035
461 1 12.0655 6.72931 12.1131
226 1 14.7303 1.22636 9.43652
228 1 14.7418 3.98015 9.3983
414 1 14.7802 1.40314 12.1232
416 1 14.7253 4.09851 12.0632
274 1 14.773 6.62614 9.3598
462 1 14.7163 6.72098 12.0554
231 2 18.8958 -0.0651398 8.05639
232 2 16.0886 2.65228 8.06174
237 1 17.3964 1.30378 9.46757
238 1 20.2599 1.34998 9.40965
239 1 17.415 3.99987 9.38471
240 1 20.0922 4.02477 9.35935
421 2 16.1235 -0.0527237 10.7443
422 2 18.767 2.63614 10.7429
423 2 18.7992 -0.00484365 13.4548
424 2 16.0749 2.65563 13.3471
425 1 17.5149 1.38235 12.1032
426 1 20.1141 1.34364 12.1363
427 1 17.4866 4.05079 12.1007
428 1 20.1678 3.92334 12.0456
279 2 18.7717 5.36016 8.02846
285 1 17.474 6.72456 9.36754
286 1 20.1389 6.74084 9.38999
469 2 16.0786 5.44053 10.7174
471 2 18.7797 5.3801 13.4466
473 1 17.5085 6.73632 12.0517
474 1 20.2321 6.70601 12.0848
244 2 -0.0379435 8.01695 8.08951
251 1 1.34469 9.34402 9.44073
252 1 4.01883 9.47447 9.39817
434 2 2.68684 8.02184 10.777
436 2 -0.11933 8.03058 13.4614
439 1 1.33691 9.6262 12.16
440 1 4.09166 9.36161 12.1593
291 2 2.68165 10.7416 8.07495
292 2 0.0182263 13.4051 8.08545
297 1 1.36215 12.0745 9.45067
298 1 4.0045 12.1046 9.4668
481 2 -0.056607 10.7671 10.7543
482 2 2.6824 13.4424 10.7584
483 2 2.69796 10.8158 13.4506
484 2 0.0421047 13.4979 13.4515
485 1 1.39353 12.2216 12.1106
486 1 4.10323 12.0791 12.1806
256 2 5.35262 8.06417 8.02641
263 1 6.70213 9.46616 9.44942
448 2 5.32825 8.08912 13.5181
451 1 6.70543 9.40701 12.1369
304 2 5.37196 13.4853 8.08582
309 1 6.76351 12.0911 9.48128
493 2 5.36825 10.6921 10.8066
496 2 5.46647 13.5173 13.5307
497 1 6.81627 12.0197 12.1423
264 1 9.43382 9.48813 9.35032
446 2 8.0161 8.09023 10.7691
452 1 9.51616 9.41072 12.0977
303 2 8.07738 10.7127 8.13119
310 1 9.4865 12.1783 9.46989
494 2 8.11989 13.3954 10.7988
495 2 8.04703 10.7485 13.5406
498 1 9.48738 12.0629 12.1114
268 2 10.686 7.98235 8.07656
275 1 12.1382 9.41835 9.37035
458 2 13.4374 8.03745 10.753
460 2 10.7566 8.12474 13.4484
463 1 12.1577 9.42765 12.0978
315 2 13.4853 10.8 8.15635
316 2 10.8256 13.4144 8.03037
321 1 12.178 12.0996 9.41709
505 2 10.7669 10.7715 10.7172
506 2 13.4694 13.4874 10.7819
507 2 13.5542 10.7382 13.4265
508 2 10.7876 13.4554 13.4566
509 1 12.2062 12.1186 12.1283
276 1 14.8132 9.36354 9.46033
464 1 14.8516 9.42281 12.1626
322 1 14.8717 12.1072 9.41744
510 1 14.8467 12.142 12.0944
280 2 16.1378 8.08108 8.06839
287 1 17.5087 9.43303 9.47824
288 1 20.1947 9.42697 9.35559
470 2 18.8268 8.06987 10.7141
472 2 16.0842 8.00422 13.4652
475 1 17.5394 9.39228 12.0622
476 1 20.241 9.30366 12.0513
327 2 18.9488 10.7224 8.02457
328 2 16.18 13.4488 8.11814
333 1 17.5391 12.0391 9.47774
334 1 20.1609 12.0591 9.44512
517 2 16.2021 10.7698 10.767
518 2 18.8548 13.3981 10.7725
519 2 18.8322 10.7426 13.4544
520 2 16.1713 13.4238 13.4769
521 1 17.483 12.1029 12.1289
522 1 20.2502 12.1081 12.1042
299 1 1.40099 14.7974 9.40319
300 1 4.0522 14.7523 9.35072
487 1 1.35864 14.8283 12.0746
488 1 4.03054 14.7549 12.0898
339 2 2.59959 16.1862 8.06297
340 2 -0.00930248 18.8705 8.12781
345 1 1.27519 17.4932 9.46239
346 1 4.01393 17.4274 9.39123
347 1 1.35457 20.2272 9.4467
348 1 4.05522 20.1723 9.43078
529 2 -0.061003 16.1418 10.773
530 2 2.68805 18.813 10.8343
531 2 2.74888 16.1025 13.4702
532 2 -0.00112968 18.8048 13.452
533 1 1.33696 17.5202 12.114
534 1 4.03769 17.4359 12.0614
535 1 1.35354 20.2077 12.1406
536 1 4.04859 20.1296 12.167
311 1 6.79398 14.8407 9.39366
499 1 6.7297 14.7516 12.0177
352 2 5.39411 18.8731 8.10351
357 1 6.75278 17.4999 9.44626
359 1 6.73264 20.1889 9.38538
541 2 5.42475 16.1184 10.756
544 2 5.43996 18.8398 13.4417
545 1 6.72448 17.4428 12.125
547 1 6.72551 20.2055 12.1346
312 1 9.52583 14.8032 9.42904
500 1 9.37462 14.7606 12.1206
351 2 8.1385 16.1144 8.1198
358 1 9.44325 17.4879 9.33683
360 1 9.39714 20.2033 9.53208
542 2 8.09482 18.9368 10.7798
543 2 8.07388 16.1828 13.4579
546 1 9.42884 17.4558 12.0692
548 1 9.44347 20.2466 12.1642
323 1 12.2192 14.8202 9.44127
511 1 12.131 14.8068 12.1151
363 2 13.52 16.2053 8.05188
364 2 10.7468 18.8562 8.06029
369 1 12.0908 17.5302 9.49137
371 1 12.0806 20.2034 9.43071
553 2 10.6967 16.1484 10.6797
554 2 13.4292 18.9019 10.7935
555 2 13.4459 16.1616 13.4361
556 2 10.804 18.859 13.4723
557 1 12.0922 17.4533 12.0839
559 1 12.0461 20.1398 12.1001
324 1 14.8703 14.8682 9.36818
512 1 14.815 14.7987 12.1609
370 1 14.7797 17.5481 9.39215
372 1 14.7588 20.1432 9.40032
558 1 14.7502 17.5196 12.0852
560 1 14.7862 20.1801 12.1169
335 1 17.614 14.7766 9.3818
336 1 20.2455 14.7495 9.48102
523 1 17.4985 14.7746 12.1437
524 1 20.1561 14.8221 12.1477
375 2 18.8844 16.1301 8.07648
376 2 16.1892 18.908 8.06937
381 1 17.5282 17.3735 9.43346
382 1 20.2088 17.5562 9.42039
383 1 17.4733 20.1608 9.43306
384 1 20.2384 20.2434 9.50697
565 2 16.2168 16.151 10.7629
566 2 18.8207 18.8904 10.785
567 2 18.9185 16.1918 13.481
568 2 16.1499 18.8968 13.427
569 1 17.4941 17.5343 12.0908
570 1 20.186 17.503 12.1046
571 1 17.4885 20.2689 12.1007
572 1 20.2555 20.1704 12.1566
393 1 1.24312 1.28826 14.8866
394 1 3.93101 1.34238 14.8097
395 1 1.19209 3.88576 14.7999
396 1 3.90305 4.06754 14.7855
577 2 -0.0579783 -0.0162846 16.1823
578 2 2.59557 2.65722 16.1321
579 2 2.62121 0.0781276 18.8485
580 2 -0.0717113 2.70103 18.8625
581 1 1.2853 1.38452 17.499
582 1 4.02014 1.25755 17.5395
583 1 1.31004 4.05932 17.5176
584 1 4.00955 3.91865 17.4551
585 1 1.3225 1.3687 20.2273
586 1 3.99203 1.40007 20.238
587 1 1.39035 4.04587 20.1697
588 1 4.0691 4.04724 20.1715
441 1 1.31581 6.69706 14.8858
442 1 3.97999 6.71901 14.8272
625 2 0.0285851 5.33165 16.153
627 2 2.698 5.34933 18.7946
629 1 1.40157 6.64786 17.5645
630 1 4.0531 6.68931 17.5016
633 1 1.37896 6.7097 20.2211
634 1 4.0016 6.73557 20.2496
405 1 6.65683 1.36659 14.8165
407 1 6.60991 4.05786 14.8307
589 2 5.34098 -0.00456452 16.1815
592 2 5.34231 2.69891 18.8554
593 1 6.69876 1.43155 17.5239
595 1 6.70201 4.13621 17.5285
597 1 6.71118 1.40725 20.2021
599 1 6.72023 4.03118 20.2143
453 1 6.57279 6.76564 14.805
637 2 5.30212 5.44462 16.1281
641 1 6.712 6.82274 17.5479
645 1 6.63056 6.82578 20.2
406 1 9.42747 1.36653 14.8469
408 1 9.41502 4.09242 14.8088
590 2 7.99604 2.73037 16.1815
591 2 8.02743 0.110103 18.8369
594 1 9.32178 1.3582 17.4712
596 1 9.40431 4.05343 17.4712
598 1 9.44788 1.33901 20.1889
600 1 9.35487 4.06411 20.174
454 1 9.34555 6.77801 14.7111
639 2 8.03804 5.4064 18.8465
642 1 9.36434 6.73123 17.5053
646 1 9.38919 6.85486 20.181
417 1 12.1109 1.24948 14.8328
419 1 12.0371 3.9335 14.8178
601 2 10.7414 0.0386317 16.2429
602 2 13.3843 2.66701 16.1078
603 2 13.4349 -0.00660867 18.857
604 2 10.6687 2.76445 18.855
605 1 12.0811 1.36427 17.5598
607 1 12.0468 4.07677 17.5029
609 1 12.0572 1.35784 20.227
611 1 12.1118 4.00957 20.1852
465 1 12.0824 6.74664 14.8262
649 2 10.744 5.38579 16.1529
651 2 13.5426 5.34243 18.817
653 1 12.1465 6.73411 17.5377
657 1 12.0627 6.71973 20.2533
418 1 14.6998 1.37261 14.7797
420 1 14.7598 3.99994 14.6723
606 1 14.7648 1.27526 17.522
608 1 14.7152 3.96532 17.3841
610 1 14.7519 1.32462 20.1847
612 1 14.8713 4.06687 20.1253
466 1 14.6973 6.74892 14.717
654 1 14.8523 6.65552 17.4471
658 1 14.7773 6.78573 20.2304
429 1 17.3653 1.30679 14.8061
430 1 20.1375 1.24191 14.7896
431 1 17.4505 3.92796 14.7872
432 1 20.0404 3.95028 14.6643
613 2 16.1418 0.00930573 16.1273
614 2 18.8397 2.59388 16.1555
615 2 18.7996 0.00716604 18.821
616 2 16.1465 2.66191 18.8217
617 1 17.5056 1.32636 17.4787
618 1 20.1493 1.27599 17.5209
619 1 17.4844 4.0667 17.4593
620 1 20.2643 3.92524 17.4653
621 1 17.4269 1.29434 20.1787
622 1 20.1304 1.36671 20.2031
623 1 17.5606 3.98112 20.2259
624 1 20.1912 4.00944 20.1439
477 1 17.3844 6.64699 14.7891
478 1 20.1635 6.66895 14.7584
661 2 16.0737 5.28625 16.0871
663 2 18.8668 5.39968 18.8851
665 1 17.5777 6.73098 17.4899
666 1 20.21 6.63681 17.4914
669 1 17.5658 6.64867 20.2069
670 1 20.2871 6.7226 20.2033
443 1 1.27604 9.38345 14.8443
444 1 3.9968 9.4334 14.8492
626 2 2.70557 8.11886 16.1675
628 2 0.0511944 8.01033 18.81
631 1 1.41774 9.39807 17.4654
632 1 4.12349 9.51107 17.5381
635 1 1.39197 9.39085 20.2399
636 1 4.09233 9.50199 20.1835
489 1 1.31107 12.0782 14.8493
490 1 3.9794 12.101 14.8094
673 2 0.0142256 10.7312 16.0981
674 2 2.71489 13.4183 16.1981
675 2 2.70126 10.7793 18.9015
676 2 0.00547326 13.4399 18.8248
677 1 1.37524 12.1434 17.4788
678 1 4.0569 12.2448 17.5587
681 1 1.36744 12.0985 20.1516
682 1 4.01424 12.1332 20.2071
455 1 6.65115 9.4281 14.791
640 2 5.38456 8.14684 18.8446
643 1 6.83291 9.56985 17.4999
647 1 6.77414 9.53582 20.2666
501 1 6.74201 12.0965 14.8639
685 2 5.35174 10.7992 16.1788
688 2 5.42715 13.5478 18.8629
689 1 6.74747 12.1857 17.4848
693 1 6.75268 12.1665 20.1849
456 1 9.43816 9.45039 14.8029
638 2 8.12081 8.10644 16.1705
644 1 9.48531 9.47017 17.481
648 1 9.54353 9.45721 20.1548
502 1 9.45571 12.1157 14.7637
686 2 8.09542 13.4795 16.2336
687 2 8.11067 10.8088 18.8721
690 1 9.50097 12.1237 17.4902
694 1 9.42562 12.2066 20.2235
467 1 12.1246 9.50005 14.8274
650 2 13.4844 8.06048 16.1358
652 2 10.7737 8.07977 18.8075
655 1 12.1653 9.41558 17.4564
659 1 12.1758 9.34037 20.2081
513 1 12.1847 12.138 14.8204
697 2 10.7904 10.8021 16.131
698 2 13.5406 13.4881 16.181
699 2 13.4843 10.821 18.912
700 2 10.8139 13.4526 18.838
701 1 12.2362 12.2258 17.4895
705 1 12.0335 12.1054 20.2697
468 1 14.7841 9.45541 14.7835
656 1 14.851 9.34149 17.4955
660 1 14.8557 9.48573 20.1844
514 1 14.8179 12.113 14.8739
702 1 14.8823 12.0685 17.5428
706 1 14.8353 12.2307 20.2003
479 1 17.5178 9.33295 14.7664
480 1 20.1093 9.37017 14.7777
662 2 18.8397 8.00912 16.1017
664 2 16.1675 8.06374 18.8195
667 1 17.5417 9.45778 17.4851
668 1 20.3199 9.32136 17.4214
671 1 17.5657 9.3794 20.1647
672 1 20.2987 9.38024 20.1582
525 1 17.5314 12.1026 14.8448
526 1 20.2018 12.1469 14.7707
709 2 16.1981 10.6848 16.1727
710 2 18.9066 13.4555 16.0886
711 2 18.8966 10.7372 18.8259
712 2 16.2441 13.5135 18.84
713 1 17.5994 12.0966 17.4721
714 1 20.3152 12.026 17.4885
717 1 17.5735 12.1131 20.1745
718 1 20.2467 12.1361 20.155
491 1 1.34983 14.8118 14.7721
492 1 4.0824 14.8553 14.8593
679 1 1.29773 14.8417 17.5828
680 1 4.00972 14.8566 17.5294
683 1 1.33157 14.777 20.1843
684 1 4.05351 14.831 20.2625
537 1 1.42821 17.4432 14.7756
538 1 3.9825 17.5911 14.7745
539 1 1.23133 20.1311 14.7942
540 1 4.0229 20.2705 14.7258
721 2 0.0519241 16.16 16.1557
722 2 2.66689 18.8412 16.0832
723 2 2.67585 16.1729 18.831
724 2 0.012554 18.8829 18.8676
725 1 1.37858 17.525 17.4469
726 1 4.07025 17.5053 17.5031
727 1 1.30186 20.2315 17.455
728 1 3.96343 20.2353 17.46
729 1 1.24616 17.5185 20.1202
730 1 3.91994 17.4496 20.2283
731 1 1.29816 20.2815 20.2792
732 1 4.01985 20.2539 20.1182
503 1 6.70552 14.8417 14.8003
691 1 6.77823 14.8925 17.4817
695 1 6.74586 14.9253 20.1616
549 1 6.67855 17.5175 14.7523
551 1 6.64869 20.192 14.8531
733 2 5.37641 16.2354 16.1994
736 2 5.34767 18.8908 18.869
737 1 6.72703 17.6006 17.5661
739 1 6.77087 20.325 17.4916
741 1 6.65689 17.6381 20.2409
743 1 6.6603 20.3138 20.1853
504 1 9.3507 14.837 14.8704
692 1 9.49576 14.8184 17.6109
696 1 9.40019 14.8653 20.2459
550 1 9.41986 17.5998 14.7752
552 1 9.32283 20.269 14.8671
734 2 8.06168 18.9266 16.2057
735 2 8.06186 16.1953 18.9221
738 1 9.47483 17.4965 17.4936
740 1 9.4382 20.2111 17.555
742 1 9.38019 17.5685 20.2095
744 1 9.40869 20.2317 20.2125
515 1 12.0916 14.8532 14.8387
703 1 12.2076 14.8552 17.5744
707 1 12.0618 14.8678 20.2926
561 1 12.1827 17.5112 14.8989
563 1 12.0421 20.2243 14.8272
745 2 10.789 16.1384 16.193
746 2 13.4156 18.8703 16.162
747 2 13.4634 16.2202 18.8705
748 2 10.7463 18.8957 18.8322
749 1 12.1227 17.5437 17.5736
751 1 12.1259 20.1907 17.5352
753 1 12.098 17.532 20.2785
755 1 12.0974 20.191 20.2031
516 1 14.8565 14.7579 14.8444
704 1 14.8329 14.845 17.6314
708 1 14.7879 14.8459 20.2374
562 1 14.8767 17.5084 14.7718
564 1 14.8179 20.2043 14.8026
750 1 14.809 17.486 17.5649
752 1 14.7561 20.1878 17.4587
754 1 14.7929 17.559 20.2814
756 1 14.8528 20.2466 20.1663
527 1 17.6023 14.7962 14.8819
528 1 20.2715 14.7613 14.7352
715 1 17.5015 14.8471 17.495
716 1 20.2267 14.8139 17.4901
719 1 17.549 14.79 20.2078
720 1 20.2753 14.8023 20.1906
573 1 17.6094 17.4934 14.7493
574 1 20.2807 17.4709 14.8898
575 1 17.4504 20.1915 14.8011
576 1 20.1528 20.1742 14.8462
757 2 16.1894 16.1408 16.0414
758 2 18.8403 18.8208 16.1764
759 2 18.8596 16.1576 18.915
760 2 16.1964 18.8127 18.8368
761 1 17.5414 17.4803 17.471
762 1 20.2944 17.5374 17.5045
763 1 17.4964 20.1982 17.5213
764 1 20.1706 20.1941 17.4924
765 1 17.4757 17.4824 20.1886
766 1 20.1939 17.5138 20.2414
767 1 17.5135 20.2539 20.2017
768 1 20.1621 20.1636 20.1884
ITEM: TIMESTEP
2000
ITEM: NUMBER OF ATOMS
768
ITEM: BOX BOUNDS pp pp pp
-1.3703746645022231e-02 2.1548406279035863e+01
-1.3703746645022231e-02 2.1548406279035863e+01
-1.3703746645020455e-02 2.1548406279035866e+01
ITEM: ATOMS id type x y z
1 2 -0.0209156 -0.000780892 -0.0956724
2 2 2.67204 2.64515 -0.00283505
3 2 2.69622 0.0318264 2.70836
4 2 -0.0714028 2.69054 2.64993
5 1 1.31783 1.42911 1.3596
6 1 4.05241 1.33231 1.3825
7 1 1.32379 4.16026 1.2914
8 1 4.06463 4.01701 1.42754
9 1 1.30555 1.38477 4.03804
10 1 4.00517 1.36971 4.05196
11 1 1.3555 4.06431 4.03484
12 1 4.04971 4.08396 4.07608
193 2 0.0104313 -0.0303553 5.39385
194 2 2.65469 2.69585 5.35697
197 1 1.40173 1.35066 6.76751
198 1 4.04275 1.30024 6.69668
199 1 1.26385 3.98044 6.70677
200 1 3.9986 4.01629 6.80157
49 2 -0.00999929 5.36421 -0.101778
51 2 2.64012 5.37674 2.69883
53 1 1.3421 6.78747 1.24709
54 1 4.06746 6.75463 1.33413
57 1 1.24586 6.75005 4.01378
58 1 4.01658 6.67427 4.08112
241 2 -0.0505248 5.38763 5.32567
245 1 1.30794 6.67362 6.71205
246 1 3.9764 6.7367 6.72682
13 2 5.38547 -0.0368819 -0.000176431
16 2 5.33212 2.70203 2.78825
17 1 6.767 1.38785 1.30498
19 1 6.759 4.06813 1.33229
21 1 6.75318 1.39158 4.07936
23 1 6.7284 4.09366 4.01505
205 2 5.36489 -0.00609164 5.42789
209 1 6.82425 1.28691 6.77961
211 1 6.6523 4.00948 6.68617
61 2 5.42574 5.37269 0.0450305
65 1 6.79046 6.84995 1.30299
69 1 6.77478 6.77142 3.99278
253 2 5.40664 5.42567 5.33115
257 1 6.64564 6.65057 6.71988
14 2 8.0963 2.70946 0.0279434
15 2 8.08879 0.0153951 2.75049
18 1 9.43785 1.39759 1.36294
20 1 9.44602 4.07158 1.35596
22 1 9.43952 1.38406 4.07152
24 1 9.48694 3.98207 4.03402
206 2 8.06817 2.70909 5.38533
210 1 9.53165 1.33097 6.80565
212 1 9.3307 4.01064 6.7318
63 2 8.16303 5.36511 2.65735
66 1 9.4679 6.73423 1.34727
70 1 9.39183 6.68444 4.04721
258 1 9.38596 6.72201 6.72413
25 2 10.7836 -0.0479844 -0.0198058
26 2 13.4557 2.62639 -0.00104667
27 2 13.4116 -0.0321817 2.71835
28 2 10.7878 2.70251 2.72219
29 1 12.0284 1.37822 1.41555
31 1 12.1167 3.98286 1.43029
33 1 12.1136 1.31399 4.03476
35 1 12.1463 4.00938 4.13462
217 2 10.7215 -0.0237402 5.41806
218 2 13.4702 2.66042 5.31921
221 1 12.1531 1.22568 6.72233
223 1 12.073 3.95261 6.72024
73 2 10.8152 5.40294 0.0030014
75 2 13.5012 5.3748 2.66394
77 1 12.1879 6.67313 1.28592
81 1 12.1264 6.73914 4.02157
265 2 10.7691 5.33831 5.44086
269 1 12.1016 6.7468 6.76106
30 1 14.7988 1.33476 1.32329
32 1 14.828 4.03367 1.25832
34 1 14.8101 1.28959 3.9598
36 1 14.8273 3.98229 3.88904
222 1 14.8761 1.34907 6.68584
224 1 14.726 4.00233 6.67588
78 1 14.8953 6.66549 1.39047
82 1 14.8191 6.7404 4.15796
270 1 14.7569 6.72239 6.8676
37 2 16.1066 0.000544146 -0.0367139
38 2 18.8821 2.70331 -0.043463
39 2 18.8187 0.0293046 2.76083
40 2 16.1781 2.67952 2.61566
41 1 17.5178 1.33654 1.23766
42 1 20.1615 1.28542 1.31146
43 1 17.5492 4.03939 1.33849
44 1 20.2295 4.00375 1.33958
45 1 17.523 1.39843 4.04755
46 1 20.1724 1.36905 4.00881
47 1 17.4803 4.00396 4.11898
48 1 20.1799 3.94811 4.02596
229 2 16.1977 0.0120121 5.39596
230 2 18.9181 2.67084 5.44383
233 1 17.546 1.32006 6.73599
234 1 20.3423 1.24345 6.74291
235 1 17.4256 4.0196 6.70271
236 1 20.2018 3.99327 6.74424
85 2 16.2125 5.38529 -0.0117323
87 2 18.8529 5.33647 2.71055
89 1 17.5772 6.72586 1.44133
90 1 20.2683 6.71593 1.35458
93 1 17.4395 6.69098 4.16001
94 1 20.1313 6.70149 4.08051
277 2 16.141 5.31832 5.34855
281 1 17.4988 6.64793 6.85825
282 1 20.1796 6.67979 6.76859
50 2 2.66302 8.1559 -0.0296172
52 2 -0.0121597 8.02686 2.66964
55 1 1.27769 9.45608 1.37785
56 1 3.9552 9.42787 1.29591
59 1 1.43147 9.45873 4.05558
60 1 4.1608 9.42268 3.98541
242 2 2.72994 8.07359 5.37236
247 1 1.33714 9.33604 6.69132
248 1 3.98069 9.47117 6.64792
97 2 0.028163 10.6981 -0.0362194
98 2 2.64069 13.4741 -0.0787935
99 2 2.66847 10.7644 2.69811
100 2 -0.0477425 13.4626 2.75608
101 1 1.27451 12.2128 1.28098
102 1 3.98817 12.0534 1.26498
105 1 1.29552 12.1327 4.05752
106 1 3.99496 12.1124 3.98933
289 2 -0.00382393 10.7517 5.34843
290 2 2.67132 13.4188 5.40437
293 1 1.3506 12.0378 6.69076
294 1 3.98102 12.0418 6.65298
64 2 5.35544 8.09265 2.66827
67 1 6.69235 9.45977 1.4235
71 1 6.82353 9.38456 4.04727
259 1 6.64871 9.36684 6.85519
109 2 5.40302 10.7702 0.0285901
112 2 5.32787 13.4681 2.70191
113 1 6.75661 12.1436 1.4126
117 1 6.73714 12.1376 4.08773
301 2 5.37697 10.7933 5.40372
305 1 6.69592 12.0491 6.7759
62 2 8.17091 8.09016 0.0444759
68 1 9.37072 9.4007 1.31477
72 1 9.52581 9.43472 3.99725
254 2 8.10473 8.06818 5.4315
260 1 9.44483 9.43369 6.66606
110 2 8.08456 13.4582 -0.00214476
111 2 8.09723 10.7699 2.73404
114 1 9.47537 12.057 1.33611
118 1 9.38455 12.1445 4.05077
302 2 8.11501 13.5092 5.35874
306 1 9.42089 12.1706 6.7242
74 2 13.5631 8.06884 -0.0205035
76 2 10.8101 8.10204 2.66615
79 1 12.0872 9.33925 1.37644
83 1 12.2237 9.46185 4.06408
266 2 13.4767 8.03795 5.42208
271 1 12.1044 9.36693 6.7473
121 2 10.7594 10.7805 -0.013613
122 2 13.4604 13.4403 0.00175831
123 2 13.5568 10.718 2.65614
124 2 10.7622 13.4724 2.68701
125 1 12.143 12.0606 1.401
129 1 12.1649 12.18 4.04614
313 2 10.8056 10.7657 5.30229
314 2 13.4765 13.4918 5.39825
317 1 12.142 12.0673 6.76154
80 1 14.8253 9.3747 1.29125
84 1 14.8512 9.40935 3.99106
272 1 14.8606 9.44009 6.70498
126 1 14.8427 12.1172 1.34935
130 1 14.8039 12.1084 4.01749
318 1 14.8087 12.0901 6.79736
86 2 18.9389 8.02619 -0.0898802
88 2 16.2187 8.08414 2.69569
91 1 17.5378 9.39506 1.3622
92 1 20.2213 9.49256 1.2501
95 1 17.5699 9.45242 4.05798
96 1 20.3103 9.38844 3.92925
278 2 18.8363 8.03648 5.41076
283 1 17.5285 9.36925 6.71287
284 1 20.1376 9.44516 6.68322
133 2 16.2424 10.7737 -0.0100618
134 2 18.8983 13.5444 0.0413896
135 2 18.8646 10.8434 2.74893
136 2 16.1332 13.456 2.69804
137 1 17.521 12.1223 1.30416
138 1 20.1524 12.2523 1.35583
141 1 17.4687 12.0972 4.05553
142 1 20.1237 12.0633 4.11558
325 2 16.1528 10.7863 5.43075
326 2 18.8748 13.4719 5.43399
329 1 17.5512 12.132 6.76508
330 1 20.2575 12.1147 6.77506
103 1 1.25883 14.9537 1.43533
104 1 4.07433 14.8038 1.3488
107 1 1.43985 14.884 4.08901
108 1 4.0585 14.7708 4.06461
295 1 1.28297 14.769 6.71663
296 1 3.97434 14.727 6.66999
145 2 -0.00643635 16.2212 0.00927837
146 2 2.63719 18.8944 -0.037664
147 2 2.72172 16.1443 2.68598
148 2 -0.0584874 18.9483 2.73055
149 1 1.30314 17.5293 1.32149
150 1 3.99777 17.4524 1.3594
151 1 1.27513 20.2954 1.3242
152 1 4.02097 20.2258 1.30038
153 1 1.323 17.5766 3.93949
154 1 4.07602 17.4938 3.99619
155 1 1.36352 20.3017 4.02035
156 1 4.06082 20.1706 4.05169
337 2 0.0330499 16.2555 5.3567
338 2 2.70166 18.8791 5.26091
341 1 1.32161 17.5814 6.63579
342 1 4.00133 17.4543 6.72959
343 1 1.33733 20.267 6.67031
344 1 3.9689 20.2285 6.75834
115 1 6.74636 14.8368 1.33788
119 1 6.72136 14.7965 4.06078
307 1 6.69844 14.724 6.7331
157 2 5.38889 16.1967 -0.0720405