12
Lattice="5.389743439435376 0.0 0.0 0.0 5.389743439435376 0.0 0.0 0.0 5.389743439435376" Properties=species:S:1:pos:R:3:forces_xtb:R:3 energy_xtb=-146.62368938583495 pbc="T T T"
Pu 0.015926199999995033 0.004520259999986107 5.362816539435375 -0.13399170996448048 0.024846621822410844 0.724052042991877
Pu 2.6943699999999886 2.719449999999996 0.010720199999988574 -0.013410679486430573 -0.4092100483403282 0.2672555263135951
Pu 2.6971199999999897 5.386251679435377 2.723090000000001 -0.03001874378612059 0.11397659224046712 -0.45764577921850313
Pu 5.383220299435393 2.682159999999985 2.6917800000000054 0.007344535935834849 0.11490751409219462 -0.2151766356916129
O 1.3866499999999977 1.3259699999999932 1.318599999999991 -0.08770899560590052 0.057672856990281525 -0.005413619655958291
O 4.08201999999999 1.3912199999999817 1.2764799999999814 -0.12562869880347566 0.12001661490200323 0.5862546542197054
O 1.3578499999999958 4.016230000000005 1.3830600000000104 0.003125038806096839 0.05948923436391074 -0.22285721570646766
O 4.061770000000019 4.121190000000006 1.4477399999999918 -0.058610179516250485 -0.3815821699061684 -0.5197290605201076
O 1.3009999999999855 1.3921099999999853 3.9821099999999876 0.3323571362616179 -0.07752655721376805 0.4594496972717261
O 4.009630000000003 1.2722600000000046 4.060049999999994 0.01468947439362985 0.3353404300522176 -0.39749744550401894
O 1.3449899999999955 4.094270000000008 4.056179999999986 0.1673845251150905 -0.24939157679953228 -0.006496127328667211
O 4.0608299999999975 3.9649300000000136 4.11447 -0.07553170334961165 0.2914604877963112 -0.2121960371715677
12
Lattice="5.384150185962666 0.0 0.0 0.0 5.384150185962666 0.0 0.0 0.0 5.384150185962665" Properties=species:S:1:pos:R:3:forces_xtb:R:3 energy_xtb=-146.50590919398746 pbc="T T T"
Pu 5.358139785962653 0.03572060000001464 5.353094285962666 0.1550677873721738 -0.10049095927911089 0.5232171705187052
Pu 2.7127900000000063 2.719850000000013 0.025218999999985562 -0.0010332793863196508 -0.1055704915853937 -0.1824582082831785
Pu 2.6787000000000107 5.346524685962654 2.6966600000000187 0.20815499245823568 1.0304608643458897 -0.5889514404498556
Pu 0.04718799999999289 2.6841899999999987 2.7259599999999837 -0.6943412127732858 0.159156733933011 -0.828520630246277
O 1.3727200000000017 1.425330000000018 1.2327100000000162 -0.2513921538024453 -0.41701128470086896 0.7704944014095066
O 4.060380000000014 1.314660000000004 1.3197900000000113 -0.1493224839039693 0.21298986121757507 0.5529730416482402
O 1.3539000000000103 4.101559999999982 1.425740000000006 0.16413383593783853 -0.2533962458580787 -0.2183872987684067
O 4.108359999999986 4.029150000000011 1.3283099999999812 -0.42724704561368604 -0.14914562789580432 -0.026716303424583886
O 1.3521700000000045 1.307490000000018 3.9740599999999846 0.19022745945878045 0.18238123554054764 0.054022127144212506
O 4.066339999999999 1.4024299999999934 4.061580000000011 -0.20357131338986215 -0.1758214093097744 -0.27769017490963904
O 1.271799999999999 4.019660000000003 4.129330000000011 0.22084878045933715 -0.13131595711729016 -0.3323968737706453
O 3.924949999999987 4.0708899999999915 3.976200000000017 0.7884746331832027 -0.25223671929070235 0.5544141891319215
12
Lattice="5.382576491653597 0.0 0.0 0.0 5.382576491653597 0.0 0.0 0.0 5.382576491653596" Properties=species:S:1:pos:R:3:forces_xtb:R:3 energy_xtb=-146.673987518614 pbc="T T T"
Pu 0.015900899999981524 5.3681744916535825 5.3800948716536 -0.14124938972860018 0.3452718226584017 -0.14080650763438324
Pu 2.6881200000000107 2.724100000000004 0.03285079999999365 0.05150324394516385 -0.57703813091963 -0.5520941381059148
Pu 2.7105299999999843 0.0176286000000003 2.671939999999994 -0.19240300621218498 -0.06313191486964931 0.41015944759375383
Pu 0.0005419780000037362 2.685910000000003 2.7138999999999944 0.004226779664074553 -0.12609041532925183 -0.1196432364821507
O 1.3777000000000106 1.3013399999999913 1.3478999999999999 -0.10892053511174281 0.22664500189408854 -0.02763018638339383
O 4.071879999999996 1.3893999999999882 1.3392200000000185 -0.0009560165796502419 -0.2031804076991529 0.13756405128026125
O 1.2999599999999927 3.9951500000000184 1.3457000000000026 0.09067659980687921 0.24755563599413932 0.059970362866813745
O 3.9929999999999954 4.07541999999999 1.3175300000000176 0.21130964667203667 -0.031458464366414446 0.22116700807097214
O 1.2914700000000146 1.325130000000002 4.030940000000007 0.041606416213641466 -0.015668171895884996 0.06428643427767376
O 3.9519699999999918 1.3778299999999908 4.050519999999988 0.43899452582469733 -0.13657744656401963 -0.10599326554767972
O 1.4110999999999994 3.995850000000009 4.028829999999987 -0.20251628065210078 0.35825292015142784 0.024044560335862514
O 4.100359999999992 4.065740000000016 4.01990999999999 -0.19227198384221406 -0.02458042905405417 0.02897546972818501
12
Lattice="5.392796780674214 0.0 0.0 0.0 5.392796780674214 0.0 0.0 0.0 5.392796780674213" Properties=species:S:1:pos:R:3:forces_xtb:R:3 energy_xtb=-146.60738989653328 pbc="T T T"
Pu 0.003090300000010819 5.370286880674204 5.382805050674221 -0.5435741940459016 -0.005494074514831021 -0.07655722424523337
Pu 2.7169599999999834 2.6866199999999933 0.04185059999998583 -0.24873000387716343 0.008476471668382324 -0.7756129939815254
Pu 2.6629699999999925 0.03667660000000571 2.6802099999999935 0.3571576238381734 -0.791387819190722 0.782448115097572
Pu 0.029177599999994662 2.7081699999999853 2.6758599999999877 -0.8486734042106275 -0.2525438953959692 0.9494947583593255
O 1.282429999999998 1.3343900000000166 1.315430000000016 0.24143908615800797 0.032911745166862336 0.09509287323082784
O 3.9728400000000152 1.3070400000000164 1.3998000000000121 0.4867067528612564 0.1913894675880446 -0.08408115582362242
O 1.3333899999999834 4.001549999999993 1.3815600000000159 0.11119940237370245 0.3779414913157255 -0.09057679002174217
O 4.016910000000012 3.9836200000000086 1.3689600000000055 0.30043677224146315 0.3496911358597542 -0.05655936316065015
O 1.3766300000000018 1.3207699999999845 4.010780000000003 -0.11907152580878642 0.37794538984752557 0.11928727703990681
O 4.080889999999995 1.3519499999999858 4.127770000000008 -0.05772767658543092 0.23518705602714568 -0.459243983380678
O 1.3279300000000083 4.054630000000014 4.089790000000004 -0.00540213920104299 -0.28125995355132133 -0.25165695960269907
O 3.9947900000000054 4.081200000000006 4.061859999999996 0.32623930625634956 -0.24285701482059657 -0.15203455351148173
12
Lattice="5.361688707971536 0.0 0.0 0.0 5.361688707971536 0.0 0.0 0.0 5.361688707971536" Properties=species:S:1:pos:R:3:forces_xtb:R:3 energy_xtb=-146.54213982096735 pbc="T T T"
Pu 0.013997200000012292 5.348330207971524 0.01528579999999559 -0.1611160290045499 0.7915189922600449 -0.023365401705683794
Pu 2.677419999999999 2.733369999999991 0.022629200000005865 0.24247613424771639 -1.1447321129816137 -0.12126538806741426
Pu 2.7097199999999857 0.005546839999983601 2.671910000000015 -0.0966426876950039 0.3720853548994758 0.39592965077700293
Pu 0.03123859999999258 2.7152099999999995 2.723079999999983 -0.2752815499965729 -1.0660233368126228 -0.3582043266626691
O 1.3256400000000188 1.2897100000000155 1.392910000000018 -0.33363262186839876 0.3566570877472438 -0.30285555650163665
O 3.929579999999992 1.355889999999992 1.35746000000001 0.8264380002465656 0.13431043752279387 -0.4171988606949536
O 1.37273999999999 3.985490000000007 1.3981999999999923 -0.05989175334580113 0.2048658747894093 -0.38125304532130666
O 4.0580199999999875 4.024749999999987 1.3141299999999954 0.031135399353707745 0.1510893037013256 0.17445882492264952
O 1.396869999999991 1.4181099999999955 4.05638 -0.06007942529606605 -0.2120360797999039 0.059656744593146425
O 4.09874 1.2830600000000092 3.976880000000003 -0.13260968717158225 0.24087325711791974 0.5640547543763675
O 1.3452800000000127 4.095259999999985 4.048360000000015 0.004650024962580156 -0.1499471015891706 0.13615369895088283
O 4.0255400000000074 3.9723500000000183 4.000250000000014 0.014554195567405014 0.32133832314509836 0.2738889053336146
12
Lattice="5.365491053749033 0.0 0.0 0.0 5.365491053749033 0.0 0.0 0.0 5.365491053749033" Properties=species:S:1:pos:R:3:forces_xtb:R:3 energy_xtb=-146.6911247354892 pbc="T T T"
Pu 0.037233500000014456 0.018953900000005228 0.015316100000010678 -0.6078857938793675 -0.32576064396213594 -0.046414054116169896
Pu 2.6819999999999933 2.6867700000000165 0.017847100000014122 0.22058334712426841 0.2847873059931767 -0.04179405955025654
Pu 2.704670000000009 0.028780199999998635 2.7094300000000087 -0.045186676674910546 -0.399570616255688 -0.022471524820663957
Pu 0.010547800000007148 2.6938000000000057 2.6822099999999907 -0.271137610021442 0.18741239229070522 0.3025313648061807
O 1.350899999999992 1.3146100000000014 1.354209999999982 -0.04359948586864078 0.12773325397168353 -0.02258927935304275
O 4.013790000000013 1.3859000000000052 1.3777399999999949 0.23275257230216378 -0.2237769692619481 -0.2750155362263366
O 1.3342499999999975 3.9910400000000004 1.3371500000000167 0.06139791217885047 0.2789524845730972 -0.1368081794185042
O 4.0115500000000175 4.04912 1.3989500000000155 0.18698094762892276 0.11945246287677741 -0.27671410723306167
O 1.3544300000000027 1.3837499999999925 4.033980000000003 -0.031168028082373424 -0.16424437775980955 0.09099398995050988
O 4.035919999999981 1.3501999999999885 4.042359999999997 0.0957090570842305 -0.05591761648755752 0.12260568651546057
O 1.3416600000000014 4.056580000000007 3.9886999999999992 0.025587330214544086 0.04655833194481982 0.37635065295686165
O 4.020430000000002 4.025440000000017 4.076929999999992 0.17596642799375445 0.12437399207687934 -0.07067495351097706
12
Lattice="5.393490126609097 0.0 0.0 0.0 5.393490126609097 0.0 0.0 0.0 5.393490126609098" Properties=species:S:1:pos:R:3:forces_xtb:R:3 energy_xtb=-146.6200509236951 pbc="T T T"
Pu 5.3827251266090785 5.368087726609085 5.3811360266091075 0.3727804669733466 0.8915394588842153 0.2696401005166534
Pu 2.678760000000006 2.746450000000009 0.018251700000011094 0.24193430524340687 -0.9977101387467474 -0.12134314765310845
Pu 2.7248300000000096 5.379531626609081 2.6607000000000034 -0.2323833844230233 0.6496101267597469 0.8141044557296816
Pu 0.0005199210000189659 2.6874400000000054 2.7189899999999985 0.27414437785543255 -0.4109050679577094 0.04226257656319631
O 1.3423799999999884 1.2741599999999997 1.4139699999999884 0.07373054770462283 0.48803913958294576 -0.38039268954847466
O 4.071890000000017 1.373480000000014 1.3821800000000182 -0.2424177265017627 0.11411084688385528 -0.21842213544451303
O 1.3449700000000158 4.0170100000000035 1.3972300000000144 -0.11983959275077923 -0.16385042997097474 -0.20074947994954406
O 4.020829999999982 4.089520000000019 1.3131199999999938 0.17166738903515366 -0.3060789927474736 0.03197419044799446
O 1.3469500000000014 1.4357800000000114 4.1041700000000025 -0.061234876668249984 -0.2547747956271064 -0.1740215534371682
O 4.0411600000000165 1.3115200000000167 4.0733000000000095 -0.05994104479442731 0.21291587687609986 -0.060334649294641676
O 1.3902599999999972 4.115259999999988 4.094060000000007 -0.007736188177494525 -0.16749656297299173 -0.20745729077001213
O 4.104329999999999 4.0279199999999875 4.003059999999987 -0.41070427349622546 -0.05539946096385988 0.20473962283993646
12
Lattice="5.389166236803022 0.0 0.0 0.0 5.389166236803022 0.0 0.0 0.0 5.389166236803021" Properties=species:S:1:pos:R:3:forces_xtb:R:3 energy_xtb=-146.5696806508804 pbc="T T T"
Pu 5.362386736803007 5.371632736803017 0.013598500000011542 1.0436750095006275 0.7241821309002294 -0.262903338152494
Pu 2.7194300000000102 2.705270000000015 0.021569800000002685 -0.6193065763562328 -0.45041471047934006 -0.3944675060306989
Pu 2.710380000000007 5.386113036803026 2.6782899999999965 -0.46986664935740646 0.4548899525456648 1.1122545064895166
Pu 5.3792243668030375 2.7150600000000034 2.6738099999999823 0.9098442086668821 -0.5610400526096846 1.2443077045170117
O 1.3118100000000024 1.3603099999999921 1.4300100000000042 0.12914843932082237 -0.12008218252344358 -0.567077889278534
O 4.002229999999986 1.3093999999999852 1.3274999999999912 0.1203973217904127 0.258561943409811 -0.08631898423256607
O 1.4536599999999944 4.061379999999992 1.3389600000000115 -0.4802159161811184 -0.06372620883192778 0.03547916374842432
O 4.12508999999999 4.033089999999994 1.4322100000000033 -0.38649746323948514 0.13164433496678327 -0.46706368318789726
O 1.3794099999999876 1.3947400000000005 4.0867400000000025 0.024883085912208523 -0.26573072401523146 0.02587009945097289
O 4.088279999999995 1.3691800000000074 4.005450000000006 -0.21980545932819123 -0.26410431105755783 0.15840073430089516
O 1.3197400000000115 4.073230000000018 4.0624200000000075 0.21471670931623138 -0.03186022374998533 -0.283907354161145
O 4.052360000000019 4.029720000000015 4.1379799999999936 -0.2669727100447506 0.18768005144468225 -0.5145734534634855
12
Lattice="5.37504958731896 0.0 0.0 0.0 5.37504958731896 0.0 0.0 0.0 5.37504958731896" Properties=species:S:1:pos:R:3:forces_xtb:R:3 energy_xtb=-146.68179407294883 pbc="T T T"
Pu 5.36507503731895 0.014255999999998145 0.005919730000008131 0.22087506043721428 0.08471571464494262 0.4150153913249438
Pu 2.72000999999999 2.687470000000003 5.3667799473189595 -0.5823414195589827 0.06427215156359758 0.5507457079638112
Pu 2.695460000000009 5.373889167318975 2.706919999999984 -0.3916859394867626 0.3269658150245317 -0.3254622679890764
Pu 0.022675700000012275 2.7144100000000067 2.7075099999999823 -0.20100688704115516 -0.2376175500837297 -0.26610114705326354
O 1.37757999999999 1.4016099999999925 1.3777299999999888 -0.09224364064343576 -0.30425009189102264 -0.24462477185375686
O 4.0507000000000115 1.3386799999999899 1.3463000000000165 0.09381198819192829 -0.08019352850466549 -0.04381816875479901
O 1.3072900000000072 4.06680999999999 1.4009900000000024 0.10625111281936889 0.11443759257146473 -0.21463855691965744
O 3.986890000000011 4.012299999999995 1.3577799999999862 0.2769521211392836 0.1601455349967444 -0.1945912713744991
O 1.3116300000000152 1.3204200000000026 4.044900000000005 0.13833738627333633 -0.005940573698754705 0.08341650510478921
O 3.9978500000000023 1.3900000000000188 4.017969999999998 0.23609582104191743 -0.14427744421254535 0.1470379279510315
O 1.3438300000000147 3.9962000000000146 4.099930000000016 0.0855237440936957 0.24986673339465804 -0.21471048646935859
O 4.037099999999987 4.088059999999996 4.012660000000015 0.1094306527335916 -0.22812435380522117 0.3077311380698352
12
Lattice="5.412012900204061 0.0 0.0 0.0 5.412012900204061 0.0 0.0 0.0 5.412012900204062" Properties=species:S:1:pos:R:3:forces_xtb:R:3 energy_xtb=-146.5362949243863 pbc="T T T"
Pu 5.370826100204057 5.3808801002040605 5.411996850804079 0.8467996385262654 0.22809817716794303 -0.41122321731703637
Pu 2.6829699999999996 2.733790000000016 0.003988759999996046 -0.42720651477116134 -0.754575175686401 -0.49055605860667423
Pu 2.7517299999999993 5.409913280204043 2.6513300000000033 -1.2756958618856649 0.1924541719336641 0.7397388858076694
Pu 5.40312381020407 2.686370000000017 2.7308199999999885 0.5145707639131762 -0.1336107831734733 -0.2650763495692196
O 1.3182900000000004 1.2932200000000134 1.3049000000000055 0.16182699731402292 0.1604946313807504 0.2898156017937255
O 4.047440000000002 1.280800000000013 1.2385900000000176 -0.11904495753983993 0.38682063219137486 0.47623719347723675
O 1.3163999999999827 3.989790000000006 1.3875800000000107 -0.24569672589689262 0.33328534682416266 -0.1670240074899935
O 3.9472200000000197 3.9996899999999953 1.4040400000000157 0.9149811317825272 0.04106247245045783 -0.39489360347757363
O 1.4124399999999997 1.3912499999999919 4.036349999999987 -0.4211307651059775 -0.22714286189296348 -0.05334544414539274
O 4.074310000000018 1.3711999999999989 3.965259999999986 0.08796283975865765 -0.19018633466420118 0.2988426781242436
O 1.3377100000000004 4.078399999999995 4.092349999999985 0.039251019951881794 0.02878952108513653 -0.16432157993981045
O 4.059560000000016 4.0738899999999845 4.0614599999999905 -0.0766175660469951 -0.06548979761645046 0.14180590134282525
12
Lattice="5.397466763686712 0.0 0.0 0.0 5.397466763686712 0.0 0.0 0.0 5.397466763686712" Properties=species:S:1:pos:R:3:forces_xtb:R:3 energy_xtb=-146.63856462075637 pbc="T T T"
Pu 5.38474376368671 0.0035428600000031057 5.3790235636867 0.010435723592025764 -0.008981499988416382 0.1814103473239002
Pu 2.6665499999999964 2.695600000000003 0.016438400000002722 0.5266896943202307 0.6309424537037084 -0.3776702355107957
Pu 2.7250500000000177 0.009112120000006203 2.6769800000000186 -0.26561457543427053 -0.12104421693210284 0.1556926805106188
Pu 0.017957700000002037 2.671090000000008 2.721259999999992 -0.3406426649491359 0.82465324610011 -0.3188696082804961
O 1.352610000000017 1.440849999999988 1.301210000000006 -0.02998661762236408 -0.7158530474244732 0.3052776574691968
O 4.069870000000004 1.3412600000000063 1.3753299999999886 -0.12185903861078681 -0.018925408818148696 -0.2059059072135745
O 1.3006000000000184 4.098720000000007 1.4377700000000098 0.26029676055312995 -0.009483045759582838 -0.34878790258302006
O 4.033839999999998 4.037289999999982 1.2813599999999947 -0.1396573351048429 0.017272529426809225 0.18990483018865223
O 1.333100000000009 1.3525299999999847 4.021580000000013 0.007825543434765964 0.05365146588053234 0.02618929947243402
O 4.003689999999987 1.3773799999999825 4.043099999999998 0.20036368430127693 -0.1753668184978438 0.25939514797162094
O 1.3714100000000162 4.101239999999989 4.118090000000016 0.08257143189537303 -0.4395612189835066 -0.11902188830607734
O 4.083840000000018 4.066250000000019 3.979640000000006 -0.19042260637540212 -0.03730443870708585 0.2523855789575407
12
Lattice="5.369392151686623 0.0 0.0 0.0 5.369392151686623 0.0 0.0 0.0 5.369392151686624" Properties=species:S:1:pos:R:3:forces_xtb:R:3 energy_xtb=-146.50804090390557 pbc="T T T"
Pu 0.023250200000001924 0.007539310000009122 0.01428360000000455 -0.2219683822570908 0.3668147275369683 -0.06380031099019721
Pu 2.7004400000000164 2.7156800000000154 0.02776119999999878 -0.05799613645049423 -0.6814597221581579 -0.3670909556364247
Pu 2.691239999999982 0.0032675699999842292 2.697389999999987 0.15258302995451933 0.5769579291737607 -0.03252672330581562
Pu 0.009498060000000919 2.7033999999999994 2.6847999999999965 -0.11246859312615808 -0.5164205327859694 0.3061644312638007
O 1.3498699999999895 1.3779700000000052 1.3476399999999964 0.10698158705900226 -0.025654337301798634 -0.16441820122099005
O 4.050709999999989 1.3766299999999871 1.3449999999999847 -0.1998891154221604 -0.15107035950740966 -0.14418085334053773
O 1.3455799999999851 4.069059999999999 1.4955199999999822 0.05214867037406352 -0.19176740560320038 -0.7271788560985842
O 4.031350000000006 4.039329999999983 1.2706200000000025 0.09786225319628501 0.1289788421486796 0.17712087929569667
O 1.4060499999999896 1.3356699999999926 4.012429999999994 0.040429559301230496 0.09134777137629665 0.26127691796763247
O 4.135589999999999 1.266780000000003 3.9862200000000065 -0.4899227257702002 0.6115324677519156 0.45611302084720023
O 1.284450000000006 3.992230000000019 4.177080000000011 0.21147049588462014 0.14791611841952054 -0.43319125883921417
O 3.9526100000000044 4.015339999999992 3.9246800000000097 0.420769357256383 -0.3571754990506056 0.7317119100574337
12
Lattice="5.377485189502701 0.0 0.0 0.0 5.377485189502701 0.0 0.0 0.0 5.377485189502701" Properties=species:S:1:pos:R:3:forces_xtb:R:3 energy_xtb=-146.58613729188255 pbc="T T T"
Pu 0.025481499999989537 5.355125989502711 0.024097099999999247 -0.5277698405182197 0.24996539326490985 -0.41912363561225796
Pu 2.653689999999996 2.693829999999984 0.014076899999987742 0.7335023566084741 -0.1994141574385444 -0.30177406712899396
Pu 2.726739999999983 0.03701209999998749 2.671070000000011 -0.13784025608533768 -0.40775566622318793 0.5591720030499866
Pu 0.009043470000008708 2.717549999999986 2.708549999999982 -0.2005827134103717 -0.41343579365344957 -0.05477368203863867
O 1.3602899999999813 1.3944199999999916 1.4178699999999855 -0.03539337428820635 -0.21665631131907925 -0.042814515698120933
O 4.034230000000015 1.2865599999999997 1.26680999999999 -0.04693975865936986 0.29842327563992227 0.23894346981809328
O 1.3379000000000068 4.0601799999999955 1.2878299999999872 0.20677554900914902 0.036584493276724674 0.4020037968414467
O 4.018960000000013 3.9836999999999945 1.396460000000015 0.015308937712319485 0.16322330493209813 -0.10543687778599532
O 1.356809999999991 1.2695799999999844 4.141690000000008 0.42636042158386606 0.4040878071718313 -0.5511300828755468
O 4.106519999999992 1.3788600000000064 3.953929999999988 -0.6208876657447041 -0.22821947590127462 0.2977851116951408
O 1.3327300000000164 3.9887200000000185 3.9879300000000075 0.28976183640768194 0.1697249556098688 0.09351489877793985
O 4.029909999999999 4.046209999999982 4.0815300000000025 -0.10229549261528105 0.14347217464018083 -0.11636641904305377
12
Lattice="5.3888491212931715 0.0 0.0 0.0 5.3888491212931715 0.0 0.0 0.0 5.388849121293172" Properties=species:S:1:pos:R:3:forces_xtb:R:3 energy_xtb=-146.69659853859048 pbc="T T T"
Pu 0.010393300000008241 0.020386799999997787 5.372631821293164 -0.023357487529870814 -0.3576019553571893 0.4346970238606746
Pu 2.706739999999987 2.7135399999999943 0.009651629999989638 -0.32443936300579596 -0.11222989568422993 0.0013890617568253778
Pu 2.6990599999999993 5.388296981293183 2.6817100000000025 -0.21181096183196155 -0.11128338205957675 0.10328619034314826
Pu 5.379533321293189 2.670989999999997 2.725549999999986 0.28700005249304733 0.4715946176808804 -0.4281285052854127
O 1.3830600000000033 1.3821999999999997 1.3635199999999856 -0.15792098951503972 -0.12307970816388454 0.0551056371557169
O 4.070060000000011 1.3176200000000038 1.3785500000000164 -0.0009752393500225557 0.1715089479175103 -0.23015843958416668
O 1.2690099999999886 4.064839999999982 1.3641799999999902 0.21658106128561064 -0.0193213691963498 -0.09347051884315939
O 3.9579900000000108 4.027489999999999 1.3139199999999827 0.4396595009791908 0.03626868089512553 0.3053067102508024
O 1.3742600000000051 1.307760000000003 4.084340000000008 -0.1127510003285658 0.257624099379665 -0.31277394510338186
O 4.06035000000001 1.3738499999999993 4.044979999999989 -0.1141109863082373 -0.07308303655644774 0.15004875635089873
O 1.3579499999999955 4.020410000000009 4.039089999999986 0.0031974184872310472 -0.031248659963280676 0.08660609931714044
O 4.054489999999991 4.071399999999998 4.032930000000006 -0.0010720053755861217 -0.10914833889222249 -0.07190807021908616
12
Lattice="5.396201701873777 0.0 0.0 0.0 5.396201701873777 0.0 0.0 0.0 5.396201701873777" Properties=species:S:1:pos:R:3:forces_xtb:R:3 energy_xtb=-146.6166273764029 pbc="T T T"
Pu 0.006084699999983991 0.00610447999999268 0.02427080000001461 -0.10189343807130892 -0.4249833784707695 -0.5286245598503441
Pu 2.719889999999985 2.688590000000011 0.006830640000007995 -0.44652805358934544 0.32108109925604345 -0.29128102120539545
Pu 2.6852300000000175 0.02095510000000333 2.652040000000009 -0.11446423608260853 -0.5936652021776659 1.140309982948372
Pu 5.388332931873766 2.6842599999999903 2.7009300000000054 0.059199200010512015 0.32390560214842173 0.457914164782022
O 1.3350100000000016 1.3333799999999865 1.3879300000000139 0.06171907228424785 0.23504635369564536 -0.2529081863310765
O 4.028610000000014 1.3235900000000147 1.3504300000000156 0.21308678022067262 0.3476950079764534 -0.052527253097645034
O 1.2894199999999825 4.048800000000002 1.3406999999999833 0.1873502402351102 -0.1660001562371523 -0.053704558152683636
O 3.9846999999999912 4.054230000000002 1.4046799999999997 0.22456081359065577 -0.2026763265246095 -0.3379393279164756
O 1.262060000000019 1.4150499999999886 4.0920200000000095 0.3407481854574888 -0.2547412849614443 -0.0776546226363191
O 3.976730000000003 1.2882900000000137 4.061830000000011 0.1225641268311931 0.15797201773280503 -0.11379762126243938
O 1.4383299999999928 4.087310000000013 4.032710000000004 -0.15934518550436955 -0.02477273763376571 0.0804767934691432
O 4.154239999999982 3.970640000000015 4.092450000000005 -0.386997505382248 0.28113900519603846 0.029736209252841476
12
Lattice="5.372831216600949 0.0 0.0 0.0 5.372831216600949 0.0 0.0 0.0 5.372831216600948" Properties=species:S:1:pos:R:3:forces_xtb:R:3 energy_xtb=-146.7267994851427 pbc="T T T"
Pu 0.01207909999998893 0.02396379999999845 0.037667799999983105 -0.15141900269468905 -0.18654537389426348 -0.5611726451280282
Pu 2.688710000000016 2.6878000000000015 0.001028869999991085 0.11978695858022992 0.13790284485014503 -0.0831060975515167
Pu 2.7029700000000174 0.0022951699999852826 2.69863 -0.03205672472460592 0.10883182714669373 0.1766537333260001
Pu 0.019555600000010755 2.705629999999991 2.683370000000005 -0.2543127382817326 -0.044789086470783585 0.34872079580452026
O 1.3585299999999891 1.370169999999991 1.3656299999999904 0.022406879093372335 -0.039125861442207754 -0.18387284123389544
O 4.043529999999994 1.342020000000012 1.3310499999999903 0.02101733897625525 0.021153867776999808 0.13578357347004852
O 1.327439999999991 4.065990000000002 1.3536700000000073 0.03740285365788887 -0.12080730986478554 -0.03461330764789661
O 3.9975300000000007 4.021030000000013 1.374529999999995 0.23425259588285036 0.07496692433125349 -0.1755100163364868
O 1.323669999999982 1.3377999999999926 4.0195399999999974 0.10957610434130827 0.025844482901212582 0.258814982186018
O 4.0186400000000155 1.3717499999999856 4.02738000000001 0.06505762725521126 -0.12655019005837237 0.021641532287096886
O 1.3864500000000044 4.025959999999987 4.03945999999999 -0.16916333072988993 0.05625504962572124 0.026254452794544088
O 4.064980000000015 4.041449999999984 4.049409999999994 -0.0025485613561987085 0.09286282509838682 0.0704058380295959
12
Lattice="5.400024437787646 0.0 0.0 0.0 5.400024437787646 0.0 0.0 0.0 5.400024437787646" Properties=species:S:1:pos:R:3:forces_xtb:R:3 energy_xtb=-146.52809134548443 pbc="T T T"
Pu 5.378642637787645 0.037713900000009515 5.387031137787639 0.5258952857090909 -1.1740366191622291 0.49939533041761736
Pu 2.7232499999999846 2.666630000000008 5.3922238777876474 -0.2518684704855363 1.0116634305685615 0.32423206360338974
Pu 2.687389999999989 0.005166809999998409 2.704109999999983 0.1491279946915571 -0.8495309255696442 -0.44504684541246314
Pu 5.392394437787632 2.69184000000001 2.7118400000000054 0.5811848771890712 0.47194887996951124 -0.4518973792535729
O 1.4131199999999886 1.3995000000000193 1.3058499999999893 -0.46477090426715484 -0.16950769895813045 0.12328138506654102
O 4.090530000000001 1.3620800000000106 1.4689000000000112 -0.12934889825400897 -0.14617557456039146 -0.7304863039833874
O 1.4151099999999988 4.112879999999998 1.2941099999999826 -0.43083947938209965 -0.18786748021241972 0.22270282275148312
O 4.083929999999995 4.069080000000001 1.3314299999999832 -0.03590478681204096 -0.15501777782788104 -0.13061256517919814
O 1.2805300000000166 1.2202100000000042 3.987369999999994 0.13757962094067452 0.5708567138324563 0.2554481872171174
O 3.9893600000000045 1.3249999999999913 4.12049000000001 0.21271756543339237 0.061301037728037924 -0.1119382890389429
O 1.380559999999996 3.9331999999999887 4.021869999999993 -0.04344863937120645 0.304635271306699 0.07343206712152063
O 4.088720000000006 4.0190799999999935 4.005499999999989 -0.2503241653917392 0.2617307428854301 0.37148952668989527
12
Lattice="5.378078558145216 0.0 0.0 0.0 5.378078558145216 0.0 0.0 0.0 5.378078558145215" Properties=species:S:1:pos:R:3:forces_xtb:R:3 energy_xtb=-146.68925184524596 pbc="T T T"
Pu 0.007818510000018044 5.3660440581452304 5.3676635581452095 0.3438504910744814 0.6081605864795655 0.3858891721459699
Pu 2.6860399999999895 2.715179999999989 0.01732300000001081 0.1316520529733628 -0.3793299343064654 0.016148160991215983
Pu 2.721529999999987 0.006709699999992588 2.7091700000000127 -0.30957385621605915 0.3634527283464655 -0.29166240296801615
Pu 5.368670778145225 2.6981600000000086 2.69822999999999 0.5921195130435025 -0.1835162342979897 -0.13989018169381306
O 1.4031999999999885 1.3665299999999945 1.4036800000000123 -0.2156942500250654 -0.21534829736329525 -0.4183209807315754
O 4.093239999999986 1.3641599999999985 1.3113700000000157 -0.19496503147298033 -0.07500200677063437 0.0853703309866077
O 1.3482900000000055 4.02437999999999 1.3339700000000012 -0.10541008218794855 0.21271792155631292 0.09091845221113799
O 4.030930000000008 4.045500000000008 1.3903000000000116 0.05095160712193834 0.0569435218224359 -0.35889414455593127
O 1.349189999999998 1.4008099999999868 4.044340000000016 -0.09315749045169838 -0.13136828500214986 0.2772944927535714
O 4.028660000000002 1.3433000000000181 4.010459999999986 0.08232898756011352 -0.027817308384585997 0.16869115823901767
O 1.3819600000000132 4.1064799999999835 4.0398300000000145 -0.1346521325827271 -0.3282588039177283 -0.03769285869778925
O 4.06967999999999 4.02299000000001 4.044190000000011 -0.1474498088369197 0.099366111838069 0.22214880131960452
12
Lattice="5.39826480344614 0.0 0.0 0.0 5.39826480344614 0.0 0.0 0.0 5.398264803446141" Properties=species:S:1:pos:R:3:forces_xtb:R:3 energy_xtb=-146.62562135699045 pbc="T T T"
Pu 5.381934703446145 5.365804403446129 5.372767603446149 0.43678817655035396 0.7089123292231717 0.4266453640553544
Pu 2.719219999999983 2.7279500000000088 0.004440219999986886 -0.5803737891833955 -0.6553369961105492 0.07436985424657157
Pu 2.6988100000000155 0.00018506400001407246 2.7101500000000036 -0.3137914530657348 0.4632020754675983 -0.5009345757024727
Pu 5.3923656634461254 2.6915700000000053 2.7067099999999877 0.23424743413869034 -0.11057154880329134 -0.2642463105347985
O 1.3672899999999828 1.306920000000017 1.2530099999999924 0.028258551746620578 0.23396152497747374 0.390399270590133
O 4.083500000000014 1.403280000000009 1.3934299999999982 -0.21542310145606372 -0.24019073622553172 0.0535570150000239
O 1.3054000000000037 4.042329999999998 1.4381500000000116 0.1466747994127562 -0.13018317927719134 -0.3618312682757234