ITEM: TIMESTEP
1000
ITEM: NUMBER OF ATOMS
12
ITEM: BOX BOUNDS pp pp pp
-3.8952039979847823e-03 5.3998952039979811e+00
-3.8952039979847823e-03 5.3998952039979811e+00
-3.8952039979852264e-03 5.3998952039979811e+00
ITEM: ATOMS id type x y z
1 2 0.00588727 0.0317694 0.0126283
2 2 2.71962 2.64812 -0.0290893
3 2 2.68152 -0.00923011 2.72074
4 2 -0.0219593 2.71584 2.67861
5 1 1.28423 1.43768 1.36637
6 1 3.93563 1.25041 1.37523
7 1 1.45617 4.16325 1.32264
8 1 4.15945 3.99568 1.34879
9 1 1.34573 1.40514 4.09621
10 1 4.09069 1.27111 4.08068
11 1 1.32991 4.08457 4.01912
12 1 4.03 4.00232 4.05616
ITEM: TIMESTEP
2000
ITEM: NUMBER OF ATOMS
12
ITEM: BOX BOUNDS pp pp pp
-5.0155966311467752e-03 5.4010155966311428e+00
-5.0155966311467752e-03 5.4010155966311428e+00
-5.0155966311472193e-03 5.4010155966311428e+00
ITEM: ATOMS id type x y z
1 2 -0.0182165 -0.047054 -0.0162836
2 2 2.67006 2.77962 0.0346561
3 2 2.72633 -0.00569656 2.62185
4 2 0.00782609 2.6545 2.73631
5 1 1.4456 1.35974 1.34157
6 1 4.1501 1.37791 1.28943
7 1 1.35906 4.05848 1.38846
8 1 4.00923 4.08825 1.46781
9 1 1.31416 1.34294 4.01822
10 1 3.94788 1.34636 4.02919
11 1 1.29753 4.05997 4.06413
12 1 4.06005 4.02058 4.12908
ITEM: TIMESTEP
3000
ITEM: NUMBER OF ATOMS
12
ITEM: BOX BOUNDS pp pp pp
-7.3557834032111965e-03 5.4033557834032004e+00
-7.3557834032111965e-03 5.4033557834032004e+00
-7.3557834032116406e-03 5.4033557834032013e+00
ITEM: ATOMS id type x y z
1 2 -0.00806894 0.044806 -0.0156625
2 2 2.69892 2.65295 0.0220768
3 2 2.72425 -0.0529053 2.75329
4 2 -0.0350633 2.74104 2.64042
5 1 1.21614 1.41067 1.22058
6 1 3.8912 1.33171 1.3752
7 1 1.37449 4.11167 1.25533
8 1 4.1009 4.01851 1.34766
9 1 1.41048 1.23759 4.00732
10 1 4.15034 1.39113 4.05084
11 1 1.35985 3.91639 3.96866
12 1 4.0997 4.09612 4.07121
ITEM: TIMESTEP
4000
ITEM: NUMBER OF ATOMS
12
ITEM: BOX BOUNDS pp pp pp
-2.3245286830938912e-02 5.4192452868309422e+00
-2.3245286830938912e-02 5.4192452868309422e+00
-2.3245286830939356e-02 5.4192452868309422e+00
ITEM: ATOMS id type x y z
1 2 -0.0148727 -0.0259318 -0.0566014
2 2 2.68779 2.69794 -0.0434541
3 2 2.68834 -0.00787992 2.71693
4 2 -0.00186762 2.68035 2.73533
5 1 1.37534 1.32258 1.28075
6 1 4.0961 1.32515 1.45197
7 1 1.17389 4.05252 1.35266
8 1 3.95747 4.03267 1.31127
9 1 1.4065 1.42187 3.9994
10 1 4.12666 1.30617 4.09594
11 1 1.31002 4.13883 4.0404
12 1 3.98742 4.06084 4.01053
ITEM: TIMESTEP
5000
ITEM: NUMBER OF ATOMS
12
ITEM: BOX BOUNDS pp pp pp
-6.5413194930141645e-03 5.4025413194930341e+00
-6.5413194930141645e-03 5.4025413194930341e+00
-6.5413194930146086e-03 5.4025413194930332e+00
ITEM: ATOMS id type x y z
1 2 -0.0139335 -0.0351262 0.0318838
2 2 2.70323 2.72448 -0.0203354
3 2 2.69271 0.0190913 2.6645
4 2 0.00401333 2.67074 2.71774
5 1 1.3851 1.43478 1.35532
6 1 4.14467 1.32712 1.26747
7 1 1.30816 4.0821 1.28619
8 1 3.94868 4.04878 1.34435
9 1 1.36775 1.33084 4.0815
10 1 3.99513 1.34227 3.98042
11 1 1.3166 4.07662 4.02289
12 1 4.07068 3.99839 4.08021
