ITEM: TIMESTEP
1000
ITEM: NUMBER OF ATOMS
12
ITEM: BOX BOUNDS pp pp pp
-3.0989469905796370e-03 5.3990989469905744e+00
-3.0989469905796370e-03 5.3990989469905744e+00
-3.0989469905800811e-03 5.3990989469905761e+00
ITEM: ATOMS id type x y z
1 2 -0.0336129 0.0424809 0.00231691
2 2 2.74063 2.6507 -0.0192358
3 2 2.67616 0.002781 2.73163
4 2 0.00864166 2.70199 2.68527
5 1 1.29715 1.3803 1.27797
6 1 3.96949 1.27567 1.30287
7 1 1.47107 4.07002 1.39985
8 1 4.15492 4.00015 1.31769
9 1 1.38907 1.33641 4.03341
10 1 4.12544 1.33301 3.98774
11 1 1.22318 4.04983 4.0705
12 1 3.92298 4.01434 4.03872
ITEM: TIMESTEP
2000
ITEM: NUMBER OF ATOMS
12
ITEM: BOX BOUNDS pp pp pp
1.2549366954427020e-03 5.3947450633045397e+00
1.2549366954427020e-03 5.3947450633045397e+00
1.2549366954422579e-03 5.3947450633045406e+00
ITEM: ATOMS id type x y z
1 2 -0.010765 -0.0254024 -0.0123541
2 2 2.67876 2.74645 0.0182517
3 2 2.72483 -0.0139585 2.6607
4 2 0.000519921 2.68744 2.71899
5 1 1.34238 1.27416 1.41397
6 1 4.07189 1.37348 1.38218
7 1 1.34497 4.01701 1.39723
8 1 4.02083 4.08952 1.31312
9 1 1.34695 1.43578 4.10417
10 1 4.04116 1.31152 4.0733
11 1 1.39026 4.11526 4.09406
12 1 4.10433 4.02792 4.00306
ITEM: TIMESTEP
3000
ITEM: NUMBER OF ATOMS
12
ITEM: BOX BOUNDS pp pp pp
-7.5415158187865806e-03 5.4035415158187652e+00
-7.5415158187865806e-03 5.4035415158187652e+00
-7.5415158187870247e-03 5.4035415158187652e+00
ITEM: ATOMS id type x y z
1 2 0.00321529 0.00773902 -0.0101697
2 2 2.69273 2.66589 -0.0158875
3 2 2.68511 -0.0157406 2.74618
4 2 0.004127 2.736 2.66347
5 1 1.27529 1.3317 1.38074
6 1 3.94939 1.23276 1.30565
7 1 1.35972 4.06908 1.32925
8 1 4.08393 3.97753 1.37428
9 1 1.34385 1.29493 4.02448
10 1 4.06889 1.39693 3.99788
11 1 1.37808 3.99185 4.04811
12 1 4.05978 4.09134 4.08276
ITEM: TIMESTEP
4000
ITEM: NUMBER OF ATOMS
12
ITEM: BOX BOUNDS pp pp pp
-1.0447769400161729e-04 5.3961044776939779e+00
-1.0447769400161729e-04 5.3961044776939779e+00
-1.0447769400206138e-04 5.3961044776939779e+00
ITEM: ATOMS id type x y z
1 2 -0.0177118 0.0102214 0.010999
2 2 2.70592 2.70855 -0.0189496
3 2 2.69947 0.0214273 2.67041
4 2 0.013558 2.65152 2.73168
5 1 1.30947 1.33671 1.33747
6 1 4.03083 1.34092 1.42902
7 1 1.28473 4.04041 1.37465
8 1 3.98463 4.03264 1.27823
9 1 1.34179 1.41203 4.03635
10 1 4.03419 1.34128 4.0602
11 1 1.4276 4.13323 4.06068
12 1 4.08774 4.00892 4.03256
ITEM: TIMESTEP
5000
ITEM: NUMBER OF ATOMS
12
ITEM: BOX BOUNDS pp pp pp
-4.7076550374877844e-03 5.4007076550374595e+00
-4.7076550374877844e-03 5.4007076550374595e+00
-4.7076550374882285e-03 5.4007076550374595e+00
ITEM: ATOMS id type x y z
1 2 0.0155097 -0.0449268 -0.0133747
2 2 2.69178 2.71565 0.00486161
3 2 2.70917 -0.0135237 2.71753
4 2 -0.0300418 2.72198 2.68006
5 1 1.30626 1.36651 1.33004
6 1 4.03259 1.34437 1.35283
7 1 1.35988 4.05795 1.37483
8 1 4.0502 4.02238 1.30596
9 1 1.37472 1.35716 3.99295
10 1 4.07455 1.41328 4.08336
11 1 1.33831 4.04673 4.12148
12 1 4.05007 4.08863 3.98463
